----- GAMESS execution script 'rungms' -----
This job is running on host paul-VirtualBox
under operating system Linux at Tue 18 Aug 2020 02:41:55 PM EDT
Available scratch disk space (Kbyte units) at beginning of the job is
Filesystem     1K-blocks     Used Available Use% Mounted on
/dev/sda5       20123636 12784256   6294084  68% /
GAMESS temporary binary files will be written to /tmp
GAMESS supplementary output files will be written to /tmp
Copying input file N2O_aug-cc-pVDZ_geomOpt.inp to your run's scratch directory...
 
Assuming a single but multicore node.
 

 Distributed Data Interface kickoff program.
 Initiating 14 compute processes on 1 nodes to run the following command:
 /opt/gamess/gamess.00.x N2O_aug-cc-pVDZ_geomOpt 

          ******************************************************
          *         GAMESS VERSION = 30 SEP 2018 (R3)         *
          *             FROM IOWA STATE UNIVERSITY             *
          * M.W.SCHMIDT, K.K.BALDRIDGE, J.A.BOATZ, S.T.ELBERT, *
          *   M.S.GORDON, J.H.JENSEN, S.KOSEKI, N.MATSUNAGA,   *
          *          K.A.NGUYEN, S.J.SU, T.L.WINDUS,           *
          *       TOGETHER WITH M.DUPUIS, J.A.MONTGOMERY       *
          *         J.COMPUT.CHEM.  14, 1347-1363(1993)        *
          **************** 64 BIT LINUX VERSION ****************

  SINCE 1993, STUDENTS AND POSTDOCS WORKING AT IOWA STATE UNIVERSITY
  AND ALSO IN THEIR VARIOUS JOBS AFTER LEAVING ISU HAVE MADE IMPORTANT
  CONTRIBUTIONS TO THE CODE:
     IVANA ADAMOVIC, CHRISTINE AIKENS, YURI ALEXEEV, POOJA ARORA,
     ANDREY ASADCHEV, ROB BELL, PRADIPTA BANDYOPADHYAY, JONATHAN BENTZ,
     BRETT BODE, KURT BRORSEN, CALEB CARLIN, GALINA CHABAN, WEI CHEN,
     CHEOL HO CHOI, PAUL DAY, ALBERT DEFUSCO, NUWAN DESILVA, TIM DUDLEY,
     DMITRI FEDOROV, ALEX FINDLATER, GRAHAM FLETCHER, MARK FREITAG,
     KURT GLAESEMANN, ANASTASIA GUNINA,
     DAN KEMP, GRANT MERRILL, NORIYUKI MINEZAWA, JONATHAN MULLIN,
     TAKESHI NAGATA, SEAN NEDD, HEATHER NETZLOFF, BOSILJKA NJEGIC, RYAN OLSON,
     MIKE PAK, BUU PHAM,
     SPENCER PRUITT, LUKE ROSKOP, JIM SHOEMAKER, LYUDMILA SLIPCHENKO,
     TONY SMITH, SAROM SOK LEANG, JIE SONG, TETSUYA TAKETSUGU, SIMON WEBB,
     PENG XU, SOOHAENG YOO, FEDERICO ZAHARIEV

  ADDITIONAL CODE HAS BEEN PROVIDED BY COLLABORATORS IN OTHER GROUPS:
     IOWA STATE UNIVERSITY:
          JOE IVANIC, AARON WEST, LAIMUTIS BYTAUTAS, KLAUS RUEDENBERG
     UNIVERSITY OF TOKYO: KIMIHIKO HIRAO, TAKAHITO NAKAJIMA,
          TAKAO TSUNEDA, MUNEAKI KAMIYA, SUSUMU YANAGISAWA,
          KIYOSHI YAGI, MAHITO CHIBA, SEIKEN TOKURA, NAOAKI KAWAKAMI
     UNIVERSITY OF AARHUS: FRANK JENSEN
     UNIVERSITY OF IOWA: VISVALDAS KAIRYS, HUI LI
     NATIONAL INST. OF STANDARDS AND TECHNOLOGY: WALT STEVENS, DAVID GARMER
     UNIVERSITY OF PISA: BENEDETTA MENNUCCI, JACOPO TOMASI
     UNIVERSITY OF MEMPHIS: HENRY KURTZ, PRAKASHAN KORAMBATH
     UNIVERSITY OF ALBERTA: TOBY ZENG, MARIUSZ KLOBUKOWSKI
     UNIVERSITY OF NEW ENGLAND: MARK SPACKMAN
     MIE UNIVERSITY: HIROAKI UMEDA
     NAT. INST. OF ADVANCED INDUSTRIAL SCIENCE AND TECHNOLOGY: KAZUO KITAURA
     MICHIGAN STATE UNIVERSITY:
          KAROL KOWALSKI, MARTA WLOCH, JEFFREY GOUR, JESSE LUTZ,
          WEI LI, JUN SHEN, J. EMILIANO DEUSTUA, PIOTR PIECUCH
     UNIVERSITY OF MINNESOTA:
          YINAN SHU
     UNIVERSITY OF SILESIA: MONIKA MUSIAL, STANISLAW KUCHARSKI
     FACULTES UNIVERSITAIRES NOTRE-DAME DE LA PAIX:
          OLIVIER QUINET, BENOIT CHAMPAGNE
     UNIVERSITY OF CALIFORNIA - SANTA BARBARA: BERNARD KIRTMAN
     INSTITUTE FOR MOLECULAR SCIENCE:
          KAZUYA ISHIMURA, MICHIO KATOUDA, AND SHIGERU NAGASE
     UNIVERSITY OF NOTRE DAME: ANNA POMOGAEVA, DAN CHIPMAN
     KYUSHU UNIVERSITY:
          HARUYUKI NAKANO,
          FENG LONG GU, JACEK KORCHOWIEC, MARCIN MAKOWSKI, AND YURIKO AOKI,
          HIROTOSHI MORI AND EISAKU MIYOSHI
     PENNSYLVANIA STATE UNIVERSITY:
          TZVETELIN IORDANOV, CHET SWALINA, JONATHAN SKONE,
          SHARON HAMMES-SCHIFFER
     WASEDA UNIVERSITY:
          MASATO KOBAYASHI, TOMOKO AKAMA, TSUGUKI TOUMA,
          TAKESHI YOSHIKAWA, YASUHIRO IKABATA, JUNJI SEINO,
          YUYA NAKAJIMA, HIROMI NAKAI
     NANJING UNIVERSITY: SHUHUA LI
     UNIVERSITY OF NEBRASKA:
          PEIFENG SU, DEJUN SI, NANDUN THELLAMUREGE, YALI WANG, HUI LI
     UNIVERSITY OF ZURICH: ROBERTO PEVERATI, KIM BALDRIDGE
     N. COPERNICUS UNIVERSITY AND JACKSON STATE UNIVERSITY:
          MARIA BARYSZ
     UNIVERSITY OF COPENHAGEN: Jimmy Kromann, CASPER STEINMANN
     TOKYO INSTITUTE OF TECHNOLOGY: HIROYA NAKATA
     NAGOYA UNIVERSITY: YOSHIO NISHIMOTO, STEPHAN IRLE
     MOSCOW STATE UNIVERSITY: VLADIMIR MIRONOV


 PARALLEL VERSION RUNNING ON       14 PROCESSORS IN        1 NODES.

 EXECUTION OF GAMESS BEGUN Tue Aug 18 14:41:55 2020

            ECHO OF THE FIRST FEW INPUT CARDS -
 INPUT CARD>!   File created by MacMolPlt 7.7                                               
 INPUT CARD> $CONTRL SCFTYP=RHF RUNTYP=OPTIMIZE MAXIT=30 MULT=1 ISPHER=1 $END               
 INPUT CARD> $SYSTEM TIMLIM=525600 MEMORY=1000000 $END                                      
 INPUT CARD> $BASIS GBASIS=ACCD $END                                                        
 INPUT CARD> $SCF DIRSCF=.TRUE. $END                                                        
 INPUT CARD> $STATPT OPTTOL=0.0001 NSTEP=20 $END                                            
 INPUT CARD> $DATA                                                                          
 INPUT CARD>N2O geom opt                                                                    
 INPUT CARD>CNV 8                                                                           
 INPUT CARD>                                                                                
 INPUT CARD>O     8.0     0.00000     0.00000    -1.25628                                   
 INPUT CARD>N     7.0    -0.00000     0.00000     0.03122                                   
 INPUT CARD>N     7.0     0.00000     0.00000     1.40372                                   
 INPUT CARD> $END                                                                           
    1000000 WORDS OF MEMORY AVAILABLE

     BASIS OPTIONS
     -------------
     GBASIS=ACCD         IGAUSS=       0      POLAR=NONE    
     NDFUNC=       0     NFFUNC=       0     DIFFSP=       F
     NPFUNC=       0      DIFFS=       F     BASNAM=        


     RUN TITLE
     ---------
 N2O geom opt                                                                    

 THE POINT GROUP OF THE MOLECULE IS CNV     
 THE ORDER OF THE PRINCIPAL AXIS IS     8

 ATOM      ATOMIC                      COORDINATES (BOHR)
           CHARGE         X                   Y                   Z
 O           8.0     0.0000000000        0.0000000000       -2.3740249639
 N           7.0    -0.0000000000        0.0000000000        0.0589972453
 N           7.0     0.0000000000        0.0000000000        2.6526461635

          INTERNUCLEAR DISTANCES (ANGS.)
          ------------------------------

                1 O          2 N          3 N     

   1 O       0.0000000    1.2875000 *  2.6600000 *
   2 N       1.2875000 *  0.0000000    1.3725000 *
   3 N       2.6600000 *  1.3725000 *  0.0000000  

  * ... LESS THAN  3.000


     ATOMIC BASIS SET
     ----------------
 THE CONTRACTED PRIMITIVE FUNCTIONS HAVE BEEN UNNORMALIZED
 THE CONTRACTED BASIS FUNCTIONS ARE NOW NORMALIZED TO UNITY

  SHELL TYPE  PRIMITIVE        EXPONENT          CONTRACTION COEFFICIENT(S)

 O         

      1   S       1         11720.0000000    0.000709645947
      1   S       2          1759.0000000    0.005467272292
      1   S       3           400.8000000    0.027823118610
      1   S       4           113.7000000    0.104747739711
      1   S       5            37.0300000    0.282920846357
      1   S       6            13.2700000    0.448495238698
      1   S       7             5.0250000    0.270816885213
      1   S       8             1.0130000    0.015450291607

      2   S       9         11720.0000000   -0.000314443412
      2   S      10          1759.0000000   -0.002482137681
      2   S      11           400.8000000   -0.012316355382
      2   S      12           113.7000000   -0.050538917344
      2   S      13            37.0300000   -0.139384903316
      2   S      14            13.2700000   -0.325077494818
      2   S      15             5.0250000   -0.229848307588
      2   S      16             1.0130000    1.095379346788

      3   S      17             0.3023000    1.000000000000

      4   P      18            17.7000000    0.062679166282
      4   P      19             3.8540000    0.333536565879
      4   P      20             1.0460000    0.741239641640

      5   P      21             0.2753000    1.000000000000

      6   D      22             1.1850000    1.000000000000

      7   S      23             0.0789600    1.000000000000

      8   P      24             0.0685600    1.000000000000

      9   D      25             0.3320000    1.000000000000

 N         

     10   S      26          9046.0000000    0.000699617413
     10   S      27          1357.0000000    0.005386054630
     10   S      28           309.3000000    0.027391021189
     10   S      29            87.7300000    0.103150591982
     10   S      30            28.5600000    0.278570663317
     10   S      31            10.2100000    0.448294849454
     10   S      32             3.8380000    0.278085928395
     10   S      33             0.7466000    0.015431561233

     11   S      34          9046.0000000   -0.000304990096
     11   S      35          1357.0000000   -0.002408026379
     11   S      36           309.3000000   -0.011944448725
     11   S      37            87.7300000   -0.048925992909
     11   S      38            28.5600000   -0.134472724725
     11   S      39            10.2100000   -0.315112577700
     11   S      40             3.8380000   -0.242857832550
     11   S      41             0.7466000    1.094382206854

     12   S      42             0.2248000    1.000000000000

     13   P      43            13.5500000    0.058905676772
     13   P      44             2.9170000    0.320461106714
     13   P      45             0.7973000    0.753042061792

     14   P      46             0.2185000    1.000000000000

     15   D      47             0.8170000    1.000000000000

     16   S      48             0.0612400    1.000000000000

     17   P      49             0.0561100    1.000000000000

     18   D      50             0.2300000    1.000000000000

 N         

     19   S      51          9046.0000000    0.000699617413
     19   S      52          1357.0000000    0.005386054630
     19   S      53           309.3000000    0.027391021189
     19   S      54            87.7300000    0.103150591982
     19   S      55            28.5600000    0.278570663317
     19   S      56            10.2100000    0.448294849454
     19   S      57             3.8380000    0.278085928395
     19   S      58             0.7466000    0.015431561233

     20   S      59          9046.0000000   -0.000304990096
     20   S      60          1357.0000000   -0.002408026379
     20   S      61           309.3000000   -0.011944448725
     20   S      62            87.7300000   -0.048925992909
     20   S      63            28.5600000   -0.134472724725
     20   S      64            10.2100000   -0.315112577700
     20   S      65             3.8380000   -0.242857832550
     20   S      66             0.7466000    1.094382206854

     21   S      67             0.2248000    1.000000000000

     22   P      68            13.5500000    0.058905676772
     22   P      69             2.9170000    0.320461106714
     22   P      70             0.7973000    0.753042061792

     23   P      71             0.2185000    1.000000000000

     24   D      72             0.8170000    1.000000000000

     25   S      73             0.0612400    1.000000000000

     26   P      74             0.0561100    1.000000000000

     27   D      75             0.2300000    1.000000000000

 TOTAL NUMBER OF BASIS SET SHELLS             =   27
 NUMBER OF CARTESIAN GAUSSIAN BASIS FUNCTIONS =   75
 NOTE: THIS RUN WILL RESTRICT THE MO VARIATION SPACE TO SPHERICAL HARMONICS.
 THE NUMBER OF ORBITALS KEPT IN THE VARIATIONAL SPACE WILL BE PRINTED LATER.
 NUMBER OF ELECTRONS                          =   22
 CHARGE OF MOLECULE                           =    0
 SPIN MULTIPLICITY                            =    1
 NUMBER OF OCCUPIED ORBITALS (ALPHA)          =   11
 NUMBER OF OCCUPIED ORBITALS (BETA )          =   11
 TOTAL NUMBER OF ATOMS                        =    3
 THE NUCLEAR REPULSION ENERGY IS       53.0495177115

 THIS MOLECULE IS RECOGNIZED AS BEING LINEAR,
 ORBITAL LZ DEGENERACY TOLERANCE ETOLLZ= 1.00E-06

     $CONTRL OPTIONS
     ---------------
 SCFTYP=RHF          RUNTYP=OPTIMIZE     EXETYP=RUN     
 MPLEVL=       0     CITYP =NONE         CCTYP =NONE         VBTYP =NONE    
 DFTTYP=NONE         TDDFT =NONE    
 MULT  =       1     ICHARG=       0     NZVAR =       0     COORD =UNIQUE  
 PP    =NONE         RELWFN=NONE         LOCAL =NONE         NUMGRD=       F
 ISPHER=       1     NOSYM =       0     MAXIT =      30     UNITS =ANGS    
 PLTORB=       F     MOLPLT=       F     AIMPAC=       F     FRIEND=        
 NPRINT=       7     IREST =       0     GEOM  =INPUT   
 NORMF =       0     NORMP =       0     ITOL  =      20     ICUT  =       9
 INTTYP=BEST         GRDTYP=BEST         QMTTOL= 1.0E-06

     $SYSTEM OPTIONS
     ---------------
  REPLICATED MEMORY=     1000000 WORDS (ON EVERY NODE).
 DISTRIBUTED MEMDDI=           0 MILLION WORDS IN AGGREGATE,
 MEMDDI DISTRIBUTED OVER  14 PROCESSORS IS           0 WORDS/PROCESSOR.
 TOTAL MEMORY REQUESTED ON EACH PROCESSOR=     1000000 WORDS.
 TIMLIM=      525600.00 MINUTES, OR     365.0 DAYS.
 PARALL= T  BALTYP=  DLB     KDIAG=    0  COREFL= F
 MXSEQ2=     300 MXSEQ3=     150  mem10=         0

          ----------------
          PROPERTIES INPUT
          ----------------

     MOMENTS            FIELD           POTENTIAL          DENSITY
 IEMOM =       1   IEFLD =       0   IEPOT =       0   IEDEN =       0
 WHERE =COMASS     WHERE =NUCLEI     WHERE =NUCLEI     WHERE =NUCLEI  
 OUTPUT=BOTH       OUTPUT=BOTH       OUTPUT=BOTH       OUTPUT=BOTH    
 IEMINT=       0   IEFINT=       0                     IEDINT=       0
                                                       MORB  =       0
          EXTRAPOLATION IN EFFECT
          DIIS IN EFFECT
 ORBITAL PRINTING OPTION: NPREO=     1    75     2     1

     -------------------------------
     INTEGRAL TRANSFORMATION OPTIONS
     -------------------------------
     NWORD  =            0
     CUTOFF = 1.0E-09     MPTRAN =       0
     DIRTRF =       T     AOINTS =DUP     

          ----------------------
          INTEGRAL INPUT OPTIONS
          ----------------------
 NOPK  =       1 NORDER=       0 SCHWRZ=       T

     ------------------------------------------
     THE POINT GROUP IS CNV, NAXIS= 8, ORDER=16
     ------------------------------------------

 -- VARIATIONAL SPACE WILL BE RESTRICTED TO PURE SPHERICAL HARMONICS ONLY --
 AFTER EXCLUDING CONTAMINANT COMBINATIONS FROM THE CARTESIAN GAUSSIAN BASIS
 SET, THE NUMBER OF SPHERICAL HARMONICS KEPT IN THE VARIATION SPACE IS   69

     DIMENSIONS OF THE SYMMETRY SUBSPACES ARE
 A1  =   27     A2  =    0     B1  =    0     B2  =    0     E1  =   15
 E2  =    6     E3  =    0

 ..... DONE SETTING UP THE RUN .....
 CPU     0: STEP CPU TIME=     0.01 TOTAL CPU TIME=          0.0 (      0.0 MIN)
 TOTAL WALL CLOCK TIME=          0.0 SECONDS, CPU UTILIZATION IS    33.33%


          -----------------------------
          STATIONARY POINT LOCATION RUN
          -----------------------------

 OBTAINING INITIAL HESSIAN, HESS=GUESS   
 CARTESIAN COORDINATE OPTIMIZATION USING BADGER'S RULE FORCE CONSTANT GUESS

          PARAMETERS CONTROLLING GEOMETRY SEARCH ARE
          METHOD =QA                  UPHESS =BFGS    
          NNEG   =         0          NFRZ   =         0
          NSTEP  =        20          IFOLOW =         1
          HESS   =GUESS               RESTAR =         F
          IHREP  =         0          HSSEND =         F
          NPRT   =         0          NPUN   =         0
          OPTTOL = 1.000E-04          RMIN   = 1.500E-03
          RMAX   = 1.000E-01          RLIM   = 7.000E-02
          DXMAX  = 3.000E-01          PURIFY =         F
          MOVIE  =         F          TRUPD  =         T
          TRMAX  = 5.000E-01          TRMIN  = 5.000E-02
          ITBMAT =         5          STPT   =         F
          STSTEP = 1.000E-02          PROJCT=          T

 BEGINNING GEOMETRY SEARCH POINT NSERCH=   0 ...

 COORDINATES OF SYMMETRY UNIQUE ATOMS (ANGS)
   ATOM   CHARGE       X              Y              Z
 ------------------------------------------------------------
 O           8.0   0.0000000000   0.0000000000  -1.2562800000
 N           7.0  -0.0000000000   0.0000000000   0.0312200000
 N           7.0   0.0000000000   0.0000000000   1.4037200000
 COORDINATES OF ALL ATOMS ARE (ANGS)
   ATOM   CHARGE       X              Y              Z
 ------------------------------------------------------------
 O           8.0   0.0000000000   0.0000000000  -1.2562800000
 N           7.0  -0.0000000000   0.0000000000   0.0312200000
 N           7.0   0.0000000000   0.0000000000   1.4037200000

          ********************
          1 ELECTRON INTEGRALS
          ********************
 ...... END OF ONE-ELECTRON INTEGRALS ......
 CPU     0: STEP CPU TIME=     0.00 TOTAL CPU TIME=          0.0 (      0.0 MIN)
 TOTAL WALL CLOCK TIME=          0.0 SECONDS, CPU UTILIZATION IS    33.33%

          -------------
          GUESS OPTIONS
          -------------
          GUESS =HUCKEL            NORB  =       0          NORDER=       0
          MIX   =       F          PRTMO =       F          PUNMO =       F
          TOLZ  = 1.0E-08          TOLE  = 1.0E-05
          SYMDEN=       F          PURIFY=       F

 INITIAL GUESS ORBITALS GENERATED BY HUCKEL   ROUTINE.
 HUCKEL GUESS REQUIRES     44304 WORDS.

 STATISTICS FOR GENERATION OF SYMMETRY ORBITAL -Q- MATRIX
 NUMBER OF CARTESIAN ATOMIC ORBITALS=         75
 NUMBER OF SPHERICAL CONTAMINANTS DROPPED=     6
 NUMBER OF LINEARLY DEPENDENT MOS DROPPED=     0
 TOTAL NUMBER OF MOS IN VARIATION SPACE=      69

 SYMMETRIES FOR INITIAL GUESS ORBITALS FOLLOW.   BOTH SET(S).
    11 ORBITALS ARE OCCUPIED (    3 CORE ORBITALS).
     4=A1       5=A1       6=E1       7=E1       8=A1       9=A1      10=E1  
    11=E1      12=E1      13=E1      14=A1      15=A1      16=A1      17=A1  
    18=A1      19=A1      20=A1      21=A1  
 ...... END OF INITIAL ORBITAL SELECTION ......
 CPU     0: STEP CPU TIME=     0.00 TOTAL CPU TIME=          0.0 (      0.0 MIN)
 TOTAL WALL CLOCK TIME=          0.0 SECONDS, CPU UTILIZATION IS    25.00%

                    ----------------------
                    AO INTEGRAL TECHNOLOGY
                    ----------------------
     S,P,L SHELL ROTATED AXIS INTEGRALS, REPROGRAMMED BY
        KAZUYA ISHIMURA (IMS) AND JOSE SIERRA (SYNSTAR).
     S,P,D,L SHELL ROTATED AXIS INTEGRALS PROGRAMMED BY
        KAZUYA ISHIMURA (INSTITUTE FOR MOLECULAR SCIENCE).
     S,P,D,F,G SHELL TO TOTAL QUARTET ANGULAR MOMENTUM SUM 5,
        ERIC PROGRAM BY GRAHAM FLETCHER (ELORET AND NASA ADVANCED
        SUPERCOMPUTING DIVISION, AMES RESEARCH CENTER).
     S,P,D,F,G,L SHELL GENERAL RYS QUADRATURE PROGRAMMED BY
        MICHEL DUPUIS (PACIFIC NORTHWEST NATIONAL LABORATORY).

          --------------------
          2 ELECTRON INTEGRALS
          --------------------

 DIRECT SCF METHOD SKIPS INTEGRAL STORAGE ON DISK.
 DIRECT TRANSFORMATION SKIPS AO INTEGRAL STORAGE ON DISK.
  ...... END OF TWO-ELECTRON INTEGRALS .....
 CPU     0: STEP CPU TIME=     0.01 TOTAL CPU TIME=          0.0 (      0.0 MIN)
 TOTAL WALL CLOCK TIME=          0.0 SECONDS, CPU UTILIZATION IS    50.00%

          --------------------------
                 RHF SCF CALCULATION
          --------------------------

     NUCLEAR ENERGY =        53.0495177115
     MAXIT =   30     NPUNCH=    2
     EXTRAP=T  DAMP=F  SHIFT=F  RSTRCT=F  DIIS=T  DEM=F  SOSCF=F
     DENSITY MATRIX CONV=  2.00E-05
     MEMORY REQUIRED FOR RHF ITERS=     87242 WORDS.

 DIRECT SCF CALCULATION, SCHWRZ=T   FDIFF=T,  DIRTHR=  0.00E+00 NITDIR=10
 SCHWARZ INEQUALITY OVERHEAD:      2850 INTEGRALS, T=        0.00

                                                                                   NONZERO     BLOCKS
 ITER EX DEM     TOTAL ENERGY        E CHANGE  DENSITY CHANGE    DIIS ERROR      INTEGRALS    SKIPPED
   1  0  0     -182.7041136817  -182.7041136817   0.539126754   0.744911163        1082009        141
          * * *   INITIATING DIIS PROCEDURE   * * *
   2  1  0     -182.6311612421     0.0729524395   0.853408137   0.400031507        1082008        167
   3  2  0     -181.7870737484     0.8440874937   0.586268885   0.661062478        1081616        280
   4  3  0     -183.5400353260    -1.7529615776   0.073245506   0.103814127        1081498        336
   5  4  0     -183.5484389778    -0.0084036517   0.041377272   0.058473299        1081042        513
   6  5  0     -183.5576779355    -0.0092389578   0.018793087   0.023087647        1080247        694
   7  6  0     -183.5584381005    -0.0007601649   0.010335222   0.006784271        1079111        864
   8  7  0     -183.5585584462    -0.0001203458   0.002330151   0.000994480        1077007       1070
   9  8  0     -183.5585631633    -0.0000047170   0.000331786   0.000149810        1072446       1658
  10  9  0     -183.5585633121    -0.0000001489   0.000050920   0.000036448        1065251       2537
  11 10  0     -183.5585633161    -0.0000000040   0.000020922   0.000022173        1058055       3394
  12 11  0     -183.5585633171    -0.0000000010   0.000007533   0.000005574        1050512       3987

          -----------------
          DENSITY CONVERGED
          -----------------
     TIME TO FORM FOCK OPERATORS=       0.3 SECONDS (       0.0 SEC/ITER)
     FOCK TIME ON FIRST ITERATION=       0.0, LAST ITERATION=       0.0
     TIME TO SOLVE SCF EQUATIONS=       0.0 SECONDS (       0.0 SEC/ITER)

 FINAL RHF ENERGY IS     -183.5585633171 AFTER  12 ITERATIONS

 LZ VALUE ANALYSIS FOR THE MOS
 ----------------------------------------
 MO     1 (    1) HAS LZ(WEIGHT)= 0.00(100.0%) 
 MO     2 (    2) HAS LZ(WEIGHT)= 0.00(100.0%) 
 MO     3 (    3) HAS LZ(WEIGHT)= 0.00(100.0%) 
 MO     4 (    4) HAS LZ(WEIGHT)= 0.00(100.0%) 
 MO     5 (    5) HAS LZ(WEIGHT)= 0.00(100.0%) 
 MO     6 (    6) HAS LZ(WEIGHT)= 0.00(100.0%) 
 MO     7 (    7) HAS LZ(WEIGHT)= 0.00(100.0%) 
 MO     8 (    8) HAS LZ(WEIGHT)=-1.00( 50.0%)  1.00( 50.0%) 
 MO     9 (    8) HAS LZ(WEIGHT)=-1.00( 50.0%)  1.00( 50.0%) 
 MO    10 (    9) HAS LZ(WEIGHT)=-1.00( 50.0%)  1.00( 50.0%) 
 MO    11 (    9) HAS LZ(WEIGHT)=-1.00( 50.0%)  1.00( 50.0%) 
 MO    12 (   10) HAS LZ(WEIGHT)=-1.00( 50.0%)  1.00( 50.0%) 
 MO    13 (   10) HAS LZ(WEIGHT)=-1.00( 50.0%)  1.00( 50.0%) 
 MO    14 (   11) HAS LZ(WEIGHT)= 0.00(100.0%) 
 MO    15 (   12) HAS LZ(WEIGHT)= 0.00(100.0%) 
 MO    16 (   13) HAS LZ(WEIGHT)=-1.00( 50.0%)  1.00( 50.0%) 
 MO    17 (   13) HAS LZ(WEIGHT)=-1.00( 50.0%)  1.00( 50.0%) 
 MO    18 (   14) HAS LZ(WEIGHT)= 0.00(100.0%) 
 MO    19 (   15) HAS LZ(WEIGHT)=-1.00( 50.0%)  1.00( 50.0%) 
 MO    20 (   15) HAS LZ(WEIGHT)=-1.00( 50.0%)  1.00( 50.0%) 
 MO    21 (   16) HAS LZ(WEIGHT)= 0.00(100.0%) 
 MO    22 (   17) HAS LZ(WEIGHT)= 0.00(100.0%) 
 MO    23 (   18) HAS LZ(WEIGHT)=-1.00( 50.0%)  1.00( 50.0%) 
 MO    24 (   18) HAS LZ(WEIGHT)=-1.00( 50.0%)  1.00( 50.0%) 
 MO    25 (   19) HAS LZ(WEIGHT)= 0.00(100.0%) 
 MO    26 (   20) HAS LZ(WEIGHT)= 0.00(100.0%) 
 MO    27 (   21) HAS LZ(WEIGHT)=-2.00( 50.0%)  2.00( 50.0%) 
 MO    28 (   21) HAS LZ(WEIGHT)=-2.00( 50.0%)  2.00( 50.0%) 
 MO    29 (   22) HAS LZ(WEIGHT)= 0.00(100.0%) 
 MO    30 (   23) HAS LZ(WEIGHT)= 0.00(100.0%) 
 MO    31 (   24) HAS LZ(WEIGHT)=-2.00( 50.0%)  2.00( 50.0%) 
 MO    32 (   24) HAS LZ(WEIGHT)=-2.00( 50.0%)  2.00( 50.0%) 
 MO    33 (   25) HAS LZ(WEIGHT)=-1.00( 50.0%)  1.00( 50.0%) 
 MO    34 (   25) HAS LZ(WEIGHT)=-1.00( 50.0%)  1.00( 50.0%) 
 MO    35 (   26) HAS LZ(WEIGHT)= 0.00(100.0%) 
 MO    36 (   27) HAS LZ(WEIGHT)=-1.00( 50.0%)  1.00( 50.0%) 
 MO    37 (   27) HAS LZ(WEIGHT)=-1.00( 50.0%)  1.00( 50.0%) 
 MO    38 (   28) HAS LZ(WEIGHT)= 0.00(100.0%) 
 MO    39 (   29) HAS LZ(WEIGHT)=-1.00( 50.0%)  1.00( 50.0%) 
 MO    40 (   29) HAS LZ(WEIGHT)=-1.00( 50.0%)  1.00( 50.0%) 
 MO    41 (   30) HAS LZ(WEIGHT)=-2.00( 50.0%)  2.00( 50.0%) 
 MO    42 (   30) HAS LZ(WEIGHT)=-2.00( 50.0%)  2.00( 50.0%) 
 MO    43 (   31) HAS LZ(WEIGHT)=-1.00( 50.0%)  1.00( 50.0%) 
 MO    44 (   31) HAS LZ(WEIGHT)=-1.00( 50.0%)  1.00( 50.0%) 
 MO    45 (   32) HAS LZ(WEIGHT)= 0.00(100.0%) 
 MO    46 (   33) HAS LZ(WEIGHT)=-1.00( 50.0%)  1.00( 50.0%) 
 MO    47 (   33) HAS LZ(WEIGHT)=-1.00( 50.0%)  1.00( 50.0%) 
 MO    48 (   34) HAS LZ(WEIGHT)= 0.00(100.0%) 
 MO    49 (   35) HAS LZ(WEIGHT)= 0.00(100.0%) 
 MO    50 (   36) HAS LZ(WEIGHT)=-1.00( 50.0%)  1.00( 50.0%) 
 MO    51 (   36) HAS LZ(WEIGHT)=-1.00( 50.0%)  1.00( 50.0%) 
 MO    52 (   37) HAS LZ(WEIGHT)=-1.00( 50.0%)  1.00( 50.0%) 
 MO    53 (   37) HAS LZ(WEIGHT)=-1.00( 50.0%)  1.00( 50.0%) 
 MO    54 (   38) HAS LZ(WEIGHT)= 0.00(100.0%) 
 MO    55 (   39) HAS LZ(WEIGHT)=-2.00( 50.0%)  2.00( 50.0%) 
 MO    56 (   39) HAS LZ(WEIGHT)=-2.00( 50.0%)  2.00( 50.0%) 
 MO    57 (   40) HAS LZ(WEIGHT)=-2.00( 50.0%)  2.00( 50.0%) 
 MO    58 (   40) HAS LZ(WEIGHT)=-2.00( 50.0%)  2.00( 50.0%) 
 MO    59 (   41) HAS LZ(WEIGHT)= 0.00(100.0%) 
 MO    60 (   42) HAS LZ(WEIGHT)= 0.00(100.0%) 
 MO    61 (   43) HAS LZ(WEIGHT)=-1.00( 50.0%)  1.00( 50.0%) 
 MO    62 (   43) HAS LZ(WEIGHT)=-1.00( 50.0%)  1.00( 50.0%) 
 MO    63 (   44) HAS LZ(WEIGHT)= 0.00(100.0%) 
 MO    64 (   45) HAS LZ(WEIGHT)=-2.00( 50.0%)  2.00( 50.0%) 
 MO    65 (   45) HAS LZ(WEIGHT)=-2.00( 50.0%)  2.00( 50.0%) 
 MO    66 (   46) HAS LZ(WEIGHT)= 0.00(100.0%) 
 MO    67 (   47) HAS LZ(WEIGHT)=-1.00( 50.0%)  1.00( 50.0%) 
 MO    68 (   47) HAS LZ(WEIGHT)=-1.00( 50.0%)  1.00( 50.0%) 
 MO    69 (   48) HAS LZ(WEIGHT)= 0.00(100.0%) 

          ------------
          EIGENVECTORS
          ------------

                      1          2          3          4          5
                  -20.7096   -15.8921   -15.7774    -1.5308    -1.2871
                     A1         A1         A1         A1         A1  
    1  O  1  S    1.001906  -0.000117  -0.000474  -0.007790  -0.005835
    2  O  1  S    0.002662   0.000041  -0.000834   0.351021   0.199540
    3  O  1  S   -0.013831   0.003728   0.006613   0.358971   0.327088
    4  O  1  X   -0.000000  -0.000000  -0.000000   0.000000   0.000000
    5  O  1  Y   -0.000000  -0.000000  -0.000000   0.000000   0.000000
    6  O  1  Z    0.002045   0.000220   0.000079   0.116408   0.010425
    7  O  1  X   -0.000000  -0.000000  -0.000000   0.000000   0.000000
    8  O  1  Y   -0.000000  -0.000000  -0.000000   0.000000   0.000000
    9  O  1  Z   -0.007621   0.000869   0.003641   0.076023   0.072980
   10  O  1 XX   -0.000029   0.000096  -0.000088  -0.007263  -0.001728
   11  O  1 YY   -0.000029   0.000096  -0.000088  -0.007263  -0.001728
   12  O  1 ZZ    0.000058  -0.000192   0.000176   0.014526   0.003456
   13  O  1 XY   -0.000000  -0.000000  -0.000000   0.000000   0.000000
   14  O  1 XZ   -0.000000  -0.000000  -0.000000   0.000000   0.000000
   15  O  1 YZ   -0.000000  -0.000000  -0.000000   0.000000   0.000000
   16  O  1  S   -0.004061   0.001029   0.004303   0.014689   0.083363
   17  O  1  X   -0.000000  -0.000000  -0.000000   0.000000   0.000000
   18  O  1  Y   -0.000000  -0.000000  -0.000000   0.000000   0.000000
   19  O  1  Z   -0.000489   0.000566   0.000591  -0.008961   0.009276
   20  O  1 XX    0.000985   0.000200  -0.000214  -0.008024  -0.006740
   21  O  1 YY    0.000985   0.000200  -0.000214  -0.008024  -0.006740
   22  O  1 ZZ   -0.001970  -0.000400   0.000428   0.016048   0.013480
   23  O  1 XY   -0.000000  -0.000000  -0.000000   0.000000   0.000000
   24  O  1 XZ   -0.000000  -0.000000  -0.000000   0.000000   0.000000
   25  O  1 YZ   -0.000000  -0.000000  -0.000000   0.000000   0.000000
   26  N  2  S    0.000203   1.002232  -0.003768  -0.007869   0.002554
   27  N  2  S    0.000289   0.003132   0.000418   0.293496  -0.210005
   28  N  2  S    0.004846  -0.016847   0.003988   0.287957  -0.255675
   29  N  2  X   -0.000000  -0.000000  -0.000000   0.000000   0.000000
   30  N  2  Y   -0.000000  -0.000000  -0.000000   0.000000   0.000000
   31  N  2  Z   -0.000532  -0.000543   0.000228  -0.123279  -0.263351
   32  N  2  X   -0.000000  -0.000000  -0.000000   0.000000   0.000000
   33  N  2  Y   -0.000000  -0.000000  -0.000000   0.000000   0.000000
   34  N  2  Z   -0.011733  -0.005238   0.011091   0.099430   0.018771
   35  N  2 XX    0.000109  -0.000342   0.000302  -0.018179   0.005372
   36  N  2 YY    0.000109  -0.000342   0.000302  -0.018179   0.005372
   37  N  2 ZZ   -0.000218   0.000684  -0.000605   0.036359  -0.010743
   38  N  2 XY   -0.000000  -0.000000  -0.000000   0.000000   0.000000
   39  N  2 XZ   -0.000000  -0.000000  -0.000000   0.000000   0.000000
   40  N  2 YZ   -0.000000  -0.000000  -0.000000   0.000000   0.000000
   41  N  2  S   -0.001660  -0.010336   0.000391   0.114996  -0.052503
   42  N  2  X   -0.000000  -0.000000  -0.000000   0.000000   0.000000
   43  N  2  Y   -0.000000  -0.000000  -0.000000   0.000000   0.000000
   44  N  2  Z   -0.002254  -0.002854   0.002192   0.039513   0.024443
   45  N  2 XX   -0.000520   0.002509   0.000578  -0.018771   0.021398
   46  N  2 YY   -0.000520   0.002509   0.000578  -0.018771   0.021398
   47  N  2 ZZ    0.001041  -0.005019  -0.001155   0.037542  -0.042797
   48  N  2 XY   -0.000000  -0.000000  -0.000000   0.000000   0.000000
   49  N  2 XZ   -0.000000  -0.000000  -0.000000   0.000000   0.000000
   50  N  2 YZ   -0.000000  -0.000000  -0.000000   0.000000   0.000000
   51  N  3  S   -0.000459   0.003489   1.001729   0.003594   0.004518
   52  N  3  S   -0.000792  -0.000722   0.001952   0.084082  -0.326526
   53  N  3  S    0.005946   0.011392  -0.012812  -0.077730  -0.289088
   54  N  3  X   -0.000000  -0.000000  -0.000000   0.000000   0.000000
   55  N  3  Y   -0.000000  -0.000000  -0.000000   0.000000   0.000000
   56  N  3  Z   -0.000047  -0.000238  -0.002366  -0.039528   0.126536
   57  N  3  X   -0.000000  -0.000000  -0.000000   0.000000   0.000000
   58  N  3  Y   -0.000000  -0.000000  -0.000000   0.000000   0.000000
   59  N  3  Z   -0.003992  -0.007282   0.008067   0.076272   0.065399
   60  N  3 XX   -0.000090   0.000051  -0.000135  -0.001494   0.010992
   61  N  3 YY   -0.000090   0.000051  -0.000135  -0.001494   0.010992
   62  N  3 ZZ    0.000181  -0.000103   0.000270   0.002988  -0.021984
   63  N  3 XY   -0.000000  -0.000000  -0.000000   0.000000   0.000000
   64  N  3 XZ   -0.000000  -0.000000  -0.000000   0.000000   0.000000
   65  N  3 YZ   -0.000000  -0.000000  -0.000000   0.000000   0.000000
   66  N  3  S    0.004558   0.009318  -0.003700  -0.118348  -0.011599
   67  N  3  X   -0.000000  -0.000000  -0.000000   0.000000   0.000000
   68  N  3  Y   -0.000000  -0.000000  -0.000000   0.000000   0.000000
   69  N  3  Z   -0.001049  -0.002252   0.000821   0.029170  -0.003394
   70  N  3 XX   -0.000398  -0.000898   0.001369   0.009451   0.007814
   71  N  3 YY   -0.000398  -0.000898   0.001369   0.009451   0.007814
   72  N  3 ZZ    0.000795   0.001796  -0.002739  -0.018903  -0.015628
   73  N  3 XY   -0.000000  -0.000000  -0.000000   0.000000   0.000000
   74  N  3 XZ   -0.000000  -0.000000  -0.000000   0.000000   0.000000
   75  N  3 YZ   -0.000000  -0.000000  -0.000000   0.000000   0.000000

                      6          7          8          9         10
                   -0.8793    -0.6935    -0.6900    -0.6900    -0.4711
                     A1         A1         E1         E1         E1  
    1  O  1  S    0.005071  -0.005067   0.000000   0.000000  -0.000000
    2  O  1  S    0.263137  -0.099792   0.000000   0.000000  -0.000000
    3  O  1  S    0.390386  -0.121587   0.000000   0.000000  -0.000000
    4  O  1  X   -0.000000  -0.000000   0.425205   0.000000   0.426720
    5  O  1  Y   -0.000000  -0.000000   0.000000   0.425205  -0.000000
    6  O  1  Z   -0.298278   0.282348   0.000000   0.000000  -0.000000
    7  O  1  X   -0.000000  -0.000000   0.309156   0.000000   0.304694
    8  O  1  Y   -0.000000  -0.000000   0.000000   0.309156  -0.000000
    9  O  1  Z   -0.143918   0.191163   0.000000   0.000000  -0.000000
   10  O  1 XX    0.009534  -0.007772   0.000000   0.000000  -0.000000
   11  O  1 YY    0.009534  -0.007772   0.000000   0.000000  -0.000000
   12  O  1 ZZ   -0.019069   0.015544   0.000000   0.000000  -0.000000
   13  O  1 XY   -0.000000  -0.000000   0.000000   0.000000  -0.000000
   14  O  1 XZ   -0.000000  -0.000000   0.020899   0.000000   0.006464
   15  O  1 YZ   -0.000000  -0.000000   0.000000   0.020899  -0.000000
   16  O  1  S    0.049832  -0.011634   0.000000   0.000000  -0.000000
   17  O  1  X   -0.000000  -0.000000   0.017637   0.000000   0.060781
   18  O  1  Y   -0.000000  -0.000000   0.000000   0.017637  -0.000000
   19  O  1  Z    0.008920  -0.004578   0.000000   0.000000  -0.000000
   20  O  1 XX    0.007188  -0.011456   0.000000   0.000000  -0.000000
   21  O  1 YY    0.007188  -0.011456   0.000000   0.000000  -0.000000
   22  O  1 ZZ   -0.014375   0.022911   0.000000   0.000000  -0.000000
   23  O  1 XY   -0.000000  -0.000000   0.000000   0.000000  -0.000000
   24  O  1 XZ   -0.000000  -0.000000   0.043650   0.000000   0.008096
   25  O  1 YZ   -0.000000  -0.000000   0.000000   0.043650  -0.000000
   26  N  2  S   -0.005637  -0.000998   0.000000   0.000000  -0.000000
   27  N  2  S   -0.279134  -0.073017   0.000000   0.000000  -0.000000
   28  N  2  S   -0.428818  -0.166479   0.000000   0.000000  -0.000000
   29  N  2  X   -0.000000  -0.000000   0.400416   0.000000  -0.199061
   30  N  2  Y   -0.000000  -0.000000   0.000000   0.400416  -0.000000
   31  N  2  Z    0.155362  -0.376042   0.000000   0.000000  -0.000000
   32  N  2  X   -0.000000  -0.000000   0.217464   0.000000  -0.148039
   33  N  2  Y   -0.000000  -0.000000   0.000000   0.217464  -0.000000
   34  N  2  Z   -0.034173  -0.131085   0.000000   0.000000  -0.000000
   35  N  2 XX    0.003775  -0.004487   0.000000   0.000000  -0.000000
   36  N  2 YY    0.003775  -0.004487   0.000000   0.000000  -0.000000
   37  N  2 ZZ   -0.007550   0.008974   0.000000   0.000000  -0.000000
   38  N  2 XY   -0.000000  -0.000000   0.000000   0.000000  -0.000000
   39  N  2 XZ   -0.000000  -0.000000  -0.014845   0.000000  -0.049522
   40  N  2 YZ   -0.000000  -0.000000   0.000000  -0.014845  -0.000000
   41  N  2  S   -0.154068   0.024114   0.000000   0.000000  -0.000000
   42  N  2  X   -0.000000  -0.000000   0.011313   0.000000  -0.024454
   43  N  2  Y   -0.000000  -0.000000   0.000000   0.011313  -0.000000
   44  N  2  Z   -0.046544   0.034134   0.000000   0.000000  -0.000000
   45  N  2 XX    0.021643   0.009785   0.000000   0.000000  -0.000000
   46  N  2 YY    0.021643   0.009785   0.000000   0.000000  -0.000000
   47  N  2 ZZ   -0.043286  -0.019571   0.000000   0.000000  -0.000000
   48  N  2 XY   -0.000000  -0.000000   0.000000   0.000000  -0.000000
   49  N  2 XZ   -0.000000  -0.000000   0.056564   0.000000  -0.043573
   50  N  2 YZ   -0.000000  -0.000000   0.000000   0.056564  -0.000000
   51  N  3  S    0.002082   0.008797   0.000000   0.000000  -0.000000
   52  N  3  S    0.268312   0.254110   0.000000   0.000000  -0.000000
   53  N  3  S    0.445905   0.390457   0.000000   0.000000  -0.000000
   54  N  3  X   -0.000000  -0.000000   0.194012   0.000000  -0.423127
   55  N  3  Y   -0.000000  -0.000000   0.000000   0.194012  -0.000000
   56  N  3  Z    0.101471   0.356215   0.000000   0.000000  -0.000000
   57  N  3  X   -0.000000  -0.000000   0.082552   0.000000  -0.287341
   58  N  3  Y   -0.000000  -0.000000   0.000000   0.082552  -0.000000
   59  N  3  Z   -0.047294   0.167448   0.000000   0.000000  -0.000000
   60  N  3 XX    0.002093   0.014087   0.000000   0.000000  -0.000000
   61  N  3 YY    0.002093   0.014087   0.000000   0.000000  -0.000000
   62  N  3 ZZ   -0.004186  -0.028175   0.000000   0.000000  -0.000000
   63  N  3 XY   -0.000000  -0.000000   0.000000   0.000000  -0.000000
   64  N  3 XZ   -0.000000  -0.000000  -0.023020   0.000000   0.024446
   65  N  3 YZ   -0.000000  -0.000000   0.000000  -0.023020  -0.000000
   66  N  3  S    0.146888  -0.008809   0.000000   0.000000  -0.000000
   67  N  3  X   -0.000000  -0.000000   0.000819   0.000000  -0.039131
   68  N  3  Y   -0.000000  -0.000000   0.000000   0.000819  -0.000000
   69  N  3  Z   -0.027748   0.011910   0.000000   0.000000  -0.000000
   70  N  3 XX   -0.012845   0.004659   0.000000   0.000000  -0.000000
   71  N  3 YY   -0.012845   0.004659   0.000000   0.000000  -0.000000
   72  N  3 ZZ    0.025690  -0.009317   0.000000   0.000000  -0.000000
   73  N  3 XY   -0.000000  -0.000000   0.000000   0.000000  -0.000000
   74  N  3 XZ   -0.000000  -0.000000   0.010626   0.000000   0.012144
   75  N  3 YZ   -0.000000  -0.000000   0.000000   0.010626  -0.000000

                     11         12         13         14         15
                   -0.4711     0.0294     0.0294     0.0738     0.1037
                     E1         E1         E1         A1         A1  
    1  O  1  S   -0.000000  -0.000000  -0.000000   0.006349  -0.002308
    2  O  1  S   -0.000000  -0.000000  -0.000000  -0.081520  -0.031973
    3  O  1  S   -0.000000  -0.000000  -0.000000  -0.460774   0.012270
    4  O  1  X   -0.000000  -0.269571  -0.000000   0.000000  -0.000000
    5  O  1  Y    0.426720  -0.000000  -0.269571   0.000000  -0.000000
    6  O  1  Z   -0.000000  -0.000000  -0.000000  -0.109320   0.058261
    7  O  1  X   -0.000000  -0.254171  -0.000000   0.000000  -0.000000
    8  O  1  Y    0.304694  -0.000000  -0.254171   0.000000  -0.000000
    9  O  1  Z   -0.000000  -0.000000  -0.000000  -0.458616  -0.093282
   10  O  1 XX   -0.000000  -0.000000  -0.000000  -0.001123  -0.000679
   11  O  1 YY   -0.000000  -0.000000  -0.000000  -0.001123  -0.000679
   12  O  1 ZZ   -0.000000  -0.000000  -0.000000   0.002246   0.001359
   13  O  1 XY   -0.000000  -0.000000  -0.000000   0.000000  -0.000000
   14  O  1 XZ   -0.000000   0.012417  -0.000000   0.000000  -0.000000
   15  O  1 YZ    0.006464  -0.000000   0.012417   0.000000  -0.000000
   16  O  1  S   -0.000000  -0.000000  -0.000000  -3.986030  -2.226214
   17  O  1  X   -0.000000  -0.299994  -0.000000   0.000000  -0.000000
   18  O  1  Y    0.060781  -0.000000  -0.299994   0.000000  -0.000000
   19  O  1  Z   -0.000000  -0.000000  -0.000000  -1.272058   0.183377
   20  O  1 XX   -0.000000  -0.000000  -0.000000   0.045785   0.024501
   21  O  1 YY   -0.000000  -0.000000  -0.000000   0.045785   0.024501
   22  O  1 ZZ   -0.000000  -0.000000  -0.000000  -0.091571  -0.049002
   23  O  1 XY   -0.000000  -0.000000  -0.000000   0.000000  -0.000000
   24  O  1 XZ   -0.000000   0.003354  -0.000000   0.000000  -0.000000
   25  O  1 YZ    0.008096  -0.000000   0.003354   0.000000  -0.000000
   26  N  2  S   -0.000000  -0.000000  -0.000000  -0.015506   0.013149
   27  N  2  S   -0.000000  -0.000000  -0.000000   0.037201  -0.015496
   28  N  2  S   -0.000000  -0.000000  -0.000000   0.510825  -0.399344
   29  N  2  X   -0.000000   0.492458  -0.000000   0.000000  -0.000000
   30  N  2  Y   -0.199061  -0.000000   0.492458   0.000000  -0.000000
   31  N  2  Z   -0.000000  -0.000000  -0.000000  -0.018469  -0.042724
   32  N  2  X   -0.000000   0.470873  -0.000000   0.000000  -0.000000
   33  N  2  Y   -0.148039  -0.000000   0.470873   0.000000  -0.000000
   34  N  2  Z   -0.000000  -0.000000  -0.000000  -0.585848  -0.795287
   35  N  2 XX   -0.000000  -0.000000  -0.000000   0.017088  -0.006652
   36  N  2 YY   -0.000000  -0.000000  -0.000000   0.017088  -0.006652
   37  N  2 ZZ   -0.000000  -0.000000  -0.000000  -0.034175   0.013304
   38  N  2 XY   -0.000000  -0.000000  -0.000000   0.000000  -0.000000
   39  N  2 XZ   -0.000000  -0.008285  -0.000000   0.000000  -0.000000
   40  N  2 YZ   -0.049522  -0.000000  -0.008285   0.000000  -0.000000
   41  N  2  S   -0.000000  -0.000000  -0.000000   6.132546  -9.972209
   42  N  2  X   -0.000000   0.505163  -0.000000   0.000000  -0.000000
   43  N  2  Y   -0.024454  -0.000000   0.505163   0.000000  -0.000000
   44  N  2  Z   -0.000000  -0.000000  -0.000000  -1.165984  -5.578643
   45  N  2 XX   -0.000000  -0.000000  -0.000000  -0.066645   0.116333
   46  N  2 YY   -0.000000  -0.000000  -0.000000  -0.066645   0.116333
   47  N  2 ZZ   -0.000000  -0.000000  -0.000000   0.133291  -0.232667
   48  N  2 XY   -0.000000  -0.000000  -0.000000   0.000000  -0.000000
   49  N  2 XZ   -0.000000  -0.011423  -0.000000   0.000000  -0.000000
   50  N  2 YZ   -0.043573  -0.000000  -0.011423   0.000000  -0.000000
   51  N  3  S   -0.000000  -0.000000  -0.000000  -0.014623  -0.017351
   52  N  3  S   -0.000000  -0.000000  -0.000000  -0.125606   0.041106
   53  N  3  S   -0.000000  -0.000000  -0.000000  -0.177963   0.783342
   54  N  3  X   -0.000000  -0.392591  -0.000000   0.000000  -0.000000
   55  N  3  Y   -0.423127  -0.000000  -0.392591   0.000000  -0.000000
   56  N  3  Z   -0.000000  -0.000000  -0.000000   0.138234   0.011608
   57  N  3  X   -0.000000  -0.357607  -0.000000   0.000000  -0.000000
   58  N  3  Y   -0.287341  -0.000000  -0.357607   0.000000  -0.000000
   59  N  3  Z   -0.000000  -0.000000  -0.000000  -0.015794  -0.632864
   60  N  3 XX   -0.000000  -0.000000  -0.000000   0.000117   0.003368
   61  N  3 YY   -0.000000  -0.000000  -0.000000   0.000117   0.003368
   62  N  3 ZZ   -0.000000  -0.000000  -0.000000  -0.000235  -0.006736
   63  N  3 XY   -0.000000  -0.000000  -0.000000   0.000000  -0.000000
   64  N  3 XZ   -0.000000  -0.015862  -0.000000   0.000000  -0.000000
   65  N  3 YZ    0.024446  -0.000000  -0.015862   0.000000  -0.000000
   66  N  3  S   -0.000000  -0.000000  -0.000000  -1.271355  11.476907
   67  N  3  X   -0.000000  -0.479378  -0.000000   0.000000  -0.000000
   68  N  3  Y   -0.039131  -0.000000  -0.479378   0.000000  -0.000000
   69  N  3  Z   -0.000000  -0.000000  -0.000000   1.092471  -3.999982
   70  N  3 XX   -0.000000  -0.000000  -0.000000  -0.015676  -0.099308
   71  N  3 YY   -0.000000  -0.000000  -0.000000  -0.015676  -0.099308
   72  N  3 ZZ   -0.000000  -0.000000  -0.000000   0.031353   0.198617
   73  N  3 XY   -0.000000  -0.000000  -0.000000   0.000000  -0.000000
   74  N  3 XZ   -0.000000  -0.009460  -0.000000   0.000000  -0.000000
   75  N  3 YZ    0.012144  -0.000000  -0.009460   0.000000  -0.000000

                     16         17         18         19         20
                    0.1552     0.1552     0.1807     0.2030     0.2030
                     E1         E1         A1         E1         E1  
    1  O  1  S   -0.000000  -0.000000  -0.017022   0.000000   0.000000
    2  O  1  S   -0.000000  -0.000000  -0.045438   0.000000   0.000000
    3  O  1  S   -0.000000  -0.000000   0.398463   0.000000   0.000000
    4  O  1  X   -0.098755  -0.000000  -0.000000   0.061251   0.000000
    5  O  1  Y   -0.000000  -0.098755  -0.000000   0.000000   0.061251
    6  O  1  Z   -0.000000  -0.000000   0.065937   0.000000   0.000000
    7  O  1  X   -0.076365  -0.000000  -0.000000   0.016059   0.000000
    8  O  1  Y   -0.000000  -0.076365  -0.000000   0.000000   0.016059
    9  O  1  Z   -0.000000  -0.000000   0.173498   0.000000   0.000000
   10  O  1 XX   -0.000000  -0.000000  -0.007746   0.000000   0.000000
   11  O  1 YY   -0.000000  -0.000000  -0.007746   0.000000   0.000000
   12  O  1 ZZ   -0.000000  -0.000000   0.015493   0.000000   0.000000
   13  O  1 XY   -0.000000  -0.000000  -0.000000   0.000000   0.000000
   14  O  1 XZ   -0.006803  -0.000000  -0.000000   0.012181   0.000000
   15  O  1 YZ   -0.000000  -0.006803  -0.000000   0.000000   0.012181
   16  O  1  S   -0.000000  -0.000000  -1.971982   0.000000   0.000000
   17  O  1  X    0.034146  -0.000000  -0.000000   0.025293   0.000000
   18  O  1  Y   -0.000000   0.034146  -0.000000   0.000000   0.025293
   19  O  1  Z   -0.000000  -0.000000  -1.351609   0.000000   0.000000
   20  O  1 XX   -0.000000  -0.000000   0.027638   0.000000   0.000000
   21  O  1 YY   -0.000000  -0.000000   0.027638   0.000000   0.000000
   22  O  1 ZZ   -0.000000  -0.000000  -0.055275   0.000000   0.000000
   23  O  1 XY   -0.000000  -0.000000  -0.000000   0.000000   0.000000
   24  O  1 XZ    0.042097  -0.000000  -0.000000  -0.053813   0.000000
   25  O  1 YZ   -0.000000   0.042097  -0.000000   0.000000  -0.053813
   26  N  2  S   -0.000000  -0.000000   0.023372   0.000000   0.000000
   27  N  2  S   -0.000000  -0.000000   0.100175   0.000000   0.000000
   28  N  2  S   -0.000000  -0.000000   0.430385   0.000000   0.000000
   29  N  2  X   -0.027608  -0.000000  -0.000000   0.115021   0.000000
   30  N  2  Y   -0.000000  -0.027608  -0.000000   0.000000   0.115021
   31  N  2  Z   -0.000000  -0.000000  -0.005942   0.000000   0.000000
   32  N  2  X   -0.173015  -0.000000  -0.000000   0.212167   0.000000
   33  N  2  Y   -0.000000  -0.173015  -0.000000   0.000000   0.212167
   34  N  2  Z   -0.000000  -0.000000   0.025844   0.000000   0.000000
   35  N  2 XX   -0.000000  -0.000000  -0.019413   0.000000   0.000000
   36  N  2 YY   -0.000000  -0.000000  -0.019413   0.000000   0.000000
   37  N  2 ZZ   -0.000000  -0.000000   0.038827   0.000000   0.000000
   38  N  2 XY   -0.000000  -0.000000  -0.000000   0.000000   0.000000
   39  N  2 XZ   -0.004560  -0.000000  -0.000000  -0.002203   0.000000
   40  N  2 YZ   -0.000000  -0.004560  -0.000000   0.000000  -0.002203
   41  N  2  S   -0.000000  -0.000000   3.763009   0.000000   0.000000
   42  N  2  X    0.695793  -0.000000  -0.000000  -1.961697   0.000000
   43  N  2  Y   -0.000000   0.695793  -0.000000   0.000000  -1.961697
   44  N  2  Z   -0.000000  -0.000000  -0.513741   0.000000   0.000000
   45  N  2 XX   -0.000000  -0.000000   0.162272   0.000000   0.000000
   46  N  2 YY   -0.000000  -0.000000   0.162272   0.000000   0.000000
   47  N  2 ZZ   -0.000000  -0.000000  -0.324545   0.000000   0.000000
   48  N  2 XY   -0.000000  -0.000000  -0.000000   0.000000   0.000000
   49  N  2 XZ    0.069600  -0.000000  -0.000000  -0.199286   0.000000
   50  N  2 YZ   -0.000000   0.069600  -0.000000   0.000000  -0.199286
   51  N  3  S   -0.000000  -0.000000  -0.011478   0.000000   0.000000
   52  N  3  S   -0.000000  -0.000000   0.041582   0.000000   0.000000
   53  N  3  S   -0.000000  -0.000000   0.799993   0.000000   0.000000
   54  N  3  X   -0.172319  -0.000000  -0.000000  -0.140015   0.000000
   55  N  3  Y   -0.000000  -0.172319  -0.000000   0.000000  -0.140015
   56  N  3  Z   -0.000000  -0.000000  -0.041832   0.000000   0.000000
   57  N  3  X   -0.358870  -0.000000  -0.000000  -0.184337   0.000000
   58  N  3  Y   -0.000000  -0.358870  -0.000000   0.000000  -0.184337
   59  N  3  Z   -0.000000  -0.000000  -0.077053   0.000000   0.000000
   60  N  3 XX   -0.000000  -0.000000  -0.012131   0.000000   0.000000
   61  N  3 YY   -0.000000  -0.000000  -0.012131   0.000000   0.000000
   62  N  3 ZZ   -0.000000  -0.000000   0.024262   0.000000   0.000000
   63  N  3 XY   -0.000000  -0.000000  -0.000000   0.000000   0.000000
   64  N  3 XZ    0.009334  -0.000000  -0.000000   0.014032   0.000000
   65  N  3 YZ   -0.000000   0.009334  -0.000000   0.000000   0.014032
   66  N  3  S   -0.000000  -0.000000  -2.526100   0.000000   0.000000
   67  N  3  X    0.526377  -0.000000  -0.000000   1.965625   0.000000
   68  N  3  Y   -0.000000   0.526377  -0.000000   0.000000   1.965625
   69  N  3  Z   -0.000000  -0.000000   1.617417   0.000000   0.000000
   70  N  3 XX   -0.000000  -0.000000   0.045107   0.000000   0.000000
   71  N  3 YY   -0.000000  -0.000000   0.045107   0.000000   0.000000
   72  N  3 ZZ   -0.000000  -0.000000  -0.090214   0.000000   0.000000
   73  N  3 XY   -0.000000  -0.000000  -0.000000   0.000000   0.000000
   74  N  3 XZ    0.012878  -0.000000  -0.000000  -0.121612   0.000000
   75  N  3 YZ   -0.000000   0.012878  -0.000000   0.000000  -0.121612

                     21         22         23         24         25
                    0.2130     0.2640     0.2797     0.2797     0.3471
                     A1         A1         E1         E1         A1  
    1  O  1  S    0.019614   0.019810  -0.000000  -0.000000   0.009654
    2  O  1  S    0.142698   0.041535  -0.000000  -0.000000   0.075104
    3  O  1  S   -0.104066  -0.230911  -0.000000  -0.000000   0.276852
    4  O  1  X    0.000000  -0.000000   0.142760  -0.000000  -0.000000
    5  O  1  Y    0.000000  -0.000000  -0.000000   0.142760  -0.000000
    6  O  1  Z    0.368413   0.044234  -0.000000  -0.000000   0.036039
    7  O  1  X    0.000000  -0.000000   0.295461  -0.000000  -0.000000
    8  O  1  Y    0.000000  -0.000000  -0.000000   0.295461  -0.000000
    9  O  1  Z   -0.086822  -0.067529  -0.000000  -0.000000  -0.233897
   10  O  1 XX    0.001452  -0.010669  -0.000000  -0.000000  -0.001872
   11  O  1 YY    0.001452  -0.010669  -0.000000  -0.000000  -0.001872
   12  O  1 ZZ   -0.002905   0.021338  -0.000000  -0.000000   0.003745
   13  O  1 XY    0.000000  -0.000000  -0.000000  -0.000000  -0.000000
   14  O  1 XZ    0.000000  -0.000000   0.015435  -0.000000  -0.000000
   15  O  1 YZ    0.000000  -0.000000  -0.000000   0.015435  -0.000000
   16  O  1  S   -3.963151   1.341448  -0.000000  -0.000000  -1.561223
   17  O  1  X    0.000000  -0.000000  -2.783404  -0.000000  -0.000000
   18  O  1  Y    0.000000  -0.000000  -0.000000  -2.783404  -0.000000
   19  O  1  Z   -0.898385  -2.102643  -0.000000  -0.000000   1.834167
   20  O  1 XX    0.059335   0.041709  -0.000000  -0.000000   0.034552
   21  O  1 YY    0.059335   0.041709  -0.000000  -0.000000   0.034552
   22  O  1 ZZ   -0.118671  -0.083418  -0.000000  -0.000000  -0.069103
   23  O  1 XY    0.000000  -0.000000  -0.000000  -0.000000  -0.000000
   24  O  1 XZ    0.000000  -0.000000  -0.063784  -0.000000  -0.000000
   25  O  1 YZ    0.000000  -0.000000  -0.000000  -0.063784  -0.000000
   26  N  2  S   -0.051118   0.012740  -0.000000  -0.000000   0.066603
   27  N  2  S   -0.345948   0.001125  -0.000000  -0.000000   0.159053
   28  N  2  S   -0.091929  -0.335901  -0.000000  -0.000000  -0.893890
   29  N  2  X    0.000000  -0.000000  -0.115785  -0.000000  -0.000000
   30  N  2  Y    0.000000  -0.000000  -0.000000  -0.115785  -0.000000
   31  N  2  Z    0.006860  -0.097051  -0.000000  -0.000000   0.092589
   32  N  2  X    0.000000  -0.000000  -0.141579  -0.000000  -0.000000
   33  N  2  Y    0.000000  -0.000000  -0.000000  -0.141579  -0.000000
   34  N  2  Z   -0.386018  -0.800836  -0.000000  -0.000000  -1.746496
   35  N  2 XX   -0.039742  -0.005879  -0.000000  -0.000000  -0.010545
   36  N  2 YY   -0.039742  -0.005879  -0.000000  -0.000000  -0.010545
   37  N  2 ZZ    0.079485   0.011758  -0.000000  -0.000000   0.021090
   38  N  2 XY    0.000000  -0.000000  -0.000000  -0.000000  -0.000000
   39  N  2 XZ    0.000000  -0.000000   0.002053  -0.000000  -0.000000
   40  N  2 YZ    0.000000  -0.000000  -0.000000   0.002053  -0.000000
   41  N  2  S    7.071746   3.911840  -0.000000  -0.000000 -26.019685
   42  N  2  X    0.000000  -0.000000   3.766160  -0.000000  -0.000000
   43  N  2  Y    0.000000  -0.000000  -0.000000   3.766160  -0.000000
   44  N  2  Z   -0.554331   5.105021  -0.000000  -0.000000 -10.997299
   45  N  2 XX   -0.207491   0.005426  -0.000000  -0.000000   0.277926
   46  N  2 YY   -0.207491   0.005426  -0.000000  -0.000000   0.277926
   47  N  2 ZZ    0.414982  -0.010852  -0.000000  -0.000000  -0.555851
   48  N  2 XY    0.000000  -0.000000  -0.000000  -0.000000  -0.000000
   49  N  2 XZ    0.000000  -0.000000  -0.104228  -0.000000  -0.000000
   50  N  2 YZ    0.000000  -0.000000  -0.000000  -0.104228  -0.000000
   51  N  3  S    0.008414  -0.014013  -0.000000  -0.000000  -0.042426
   52  N  3  S    0.119994  -0.038579  -0.000000  -0.000000  -0.175866
   53  N  3  S   -0.020490   0.185832  -0.000000  -0.000000   0.854165
   54  N  3  X    0.000000  -0.000000   0.035253  -0.000000  -0.000000
   55  N  3  Y    0.000000  -0.000000  -0.000000   0.035253  -0.000000
   56  N  3  Z   -0.410866  -0.070087  -0.000000  -0.000000  -0.063763
   57  N  3  X    0.000000  -0.000000   0.100047  -0.000000  -0.000000
   58  N  3  Y    0.000000  -0.000000  -0.000000   0.100047  -0.000000
   59  N  3  Z   -0.289031  -0.468870  -0.000000  -0.000000  -1.882007
   60  N  3 XX    0.004883   0.011079  -0.000000  -0.000000  -0.011869
   61  N  3 YY    0.004883   0.011079  -0.000000  -0.000000  -0.011869
   62  N  3 ZZ   -0.009766  -0.022157  -0.000000  -0.000000   0.023738
   63  N  3 XY    0.000000  -0.000000  -0.000000  -0.000000  -0.000000
   64  N  3 XZ    0.000000  -0.000000  -0.007567  -0.000000  -0.000000
   65  N  3 YZ    0.000000  -0.000000  -0.000000  -0.007567  -0.000000
   66  N  3  S   -3.061891  -4.797490  -0.000000  -0.000000  27.186454
   67  N  3  X    0.000000  -0.000000  -1.835400  -0.000000  -0.000000
   68  N  3  Y    0.000000  -0.000000  -0.000000  -1.835400  -0.000000
   69  N  3  Z    1.538082  -0.151616  -0.000000  -0.000000  -6.952260
   70  N  3 XX    0.046174  -0.097555  -0.000000  -0.000000  -0.254716
   71  N  3 YY    0.046174  -0.097555  -0.000000  -0.000000  -0.254716
   72  N  3 ZZ   -0.092348   0.195109  -0.000000  -0.000000   0.509432
   73  N  3 XY    0.000000  -0.000000  -0.000000  -0.000000  -0.000000
   74  N  3 XZ    0.000000  -0.000000   0.021451  -0.000000  -0.000000
   75  N  3 YZ    0.000000  -0.000000  -0.000000   0.021451  -0.000000

                     26         27         28         29         30
                    0.4297     0.5551     0.5551     0.6352     0.7410
                     A1         E2         E2         A1         A1  
    1  O  1  S    0.034601  -0.000000  -0.000000  -0.039967   0.076229
    2  O  1  S    0.166521  -0.000000  -0.000000  -0.145150   0.008285
    3  O  1  S   -0.275950  -0.000000  -0.000000   0.537005  -3.057198
    4  O  1  X    0.000000  -0.000000  -0.000000  -0.000000  -0.000000
    5  O  1  Y    0.000000  -0.000000  -0.000000  -0.000000  -0.000000
    6  O  1  Z   -0.143580  -0.000000  -0.000000  -0.335255  -0.073220
    7  O  1  X    0.000000  -0.000000  -0.000000  -0.000000  -0.000000
    8  O  1  Y    0.000000  -0.000000  -0.000000  -0.000000  -0.000000
    9  O  1  Z   -1.489058  -0.000000  -0.000000  -0.221667  -1.406890
   10  O  1 XX   -0.008127   0.006500  -0.000000  -0.010632  -0.001037
   11  O  1 YY   -0.008127  -0.006500  -0.000000  -0.010632  -0.001037
   12  O  1 ZZ    0.016255  -0.000000  -0.000000   0.021264   0.002075
   13  O  1 XY    0.000000  -0.000000   0.007505  -0.000000  -0.000000
   14  O  1 XZ    0.000000  -0.000000  -0.000000  -0.000000  -0.000000
   15  O  1 YZ    0.000000  -0.000000  -0.000000  -0.000000  -0.000000
   16  O  1  S  -10.753743  -0.000000  -0.000000  -1.881384   1.222077
   17  O  1  X    0.000000  -0.000000  -0.000000  -0.000000  -0.000000
   18  O  1  Y    0.000000  -0.000000  -0.000000  -0.000000  -0.000000
   19  O  1  Z   -2.694527  -0.000000  -0.000000   0.688614   0.338916
   20  O  1 XX    0.151898   0.062430  -0.000000  -0.091373  -0.083065
   21  O  1 YY    0.151898  -0.062430  -0.000000  -0.091373  -0.083065
   22  O  1 ZZ   -0.303795  -0.000000  -0.000000   0.182746   0.166130
   23  O  1 XY    0.000000  -0.000000   0.072088  -0.000000  -0.000000
   24  O  1 XZ    0.000000  -0.000000  -0.000000  -0.000000  -0.000000
   25  O  1 YZ    0.000000  -0.000000  -0.000000  -0.000000  -0.000000
   26  N  2  S   -0.063767  -0.000000  -0.000000   0.018283  -0.082094
   27  N  2  S    0.024927  -0.000000  -0.000000   0.036654   0.062197
   28  N  2  S    2.253007  -0.000000  -0.000000   0.323192   2.115219
   29  N  2  X    0.000000  -0.000000  -0.000000  -0.000000  -0.000000
   30  N  2  Y    0.000000  -0.000000  -0.000000  -0.000000  -0.000000
   31  N  2  Z    0.021263  -0.000000  -0.000000  -0.639800  -0.295809
   32  N  2  X    0.000000  -0.000000  -0.000000  -0.000000  -0.000000
   33  N  2  Y    0.000000  -0.000000  -0.000000  -0.000000  -0.000000
   34  N  2  Z   -1.627158  -0.000000  -0.000000  -0.042265  -0.452136
   35  N  2 XX   -0.012608   0.000507  -0.000000   0.009164  -0.004546
   36  N  2 YY   -0.012608  -0.000507  -0.000000   0.009164  -0.004546
   37  N  2 ZZ    0.025216  -0.000000  -0.000000  -0.018328   0.009092
   38  N  2 XY    0.000000  -0.000000   0.000586  -0.000000  -0.000000
   39  N  2 XZ    0.000000  -0.000000  -0.000000  -0.000000  -0.000000
   40  N  2 YZ    0.000000  -0.000000  -0.000000  -0.000000  -0.000000
   41  N  2  S   14.834058  -0.000000  -0.000000  -4.504547   4.586578
   42  N  2  X    0.000000  -0.000000  -0.000000  -0.000000  -0.000000
   43  N  2  Y    0.000000  -0.000000  -0.000000  -0.000000  -0.000000
   44  N  2  Z   -0.947117  -0.000000  -0.000000  -3.971163   2.647428
   45  N  2 XX   -0.274826   0.572139  -0.000000   0.263950  -1.182966
   46  N  2 YY   -0.274826  -0.572139  -0.000000   0.263950  -1.182966
   47  N  2 ZZ    0.549651  -0.000000  -0.000000  -0.527899   2.365932
   48  N  2 XY    0.000000  -0.000000   0.660650  -0.000000  -0.000000
   49  N  2 XZ    0.000000  -0.000000  -0.000000  -0.000000  -0.000000
   50  N  2 YZ    0.000000  -0.000000  -0.000000  -0.000000  -0.000000
   51  N  3  S   -0.032648  -0.000000  -0.000000   0.010016   0.090778
   52  N  3  S   -0.052145  -0.000000  -0.000000   0.079696   0.277011
   53  N  3  S    0.280117  -0.000000  -0.000000   0.634025  -2.552400
   54  N  3  X    0.000000  -0.000000  -0.000000  -0.000000  -0.000000
   55  N  3  Y    0.000000  -0.000000  -0.000000  -0.000000  -0.000000
   56  N  3  Z    0.190191  -0.000000  -0.000000  -0.206697  -0.164403
   57  N  3  X    0.000000  -0.000000  -0.000000  -0.000000  -0.000000
   58  N  3  Y    0.000000  -0.000000  -0.000000  -0.000000  -0.000000
   59  N  3  Z    0.220863  -0.000000  -0.000000  -0.522917   1.238255
   60  N  3 XX    0.000931  -0.004160  -0.000000   0.011467   0.019592
   61  N  3 YY    0.000931   0.004160  -0.000000   0.011467   0.019592
   62  N  3 ZZ   -0.001862  -0.000000  -0.000000  -0.022935  -0.039184
   63  N  3 XY    0.000000  -0.000000  -0.004803  -0.000000  -0.000000
   64  N  3 XZ    0.000000  -0.000000  -0.000000  -0.000000  -0.000000
   65  N  3 YZ    0.000000  -0.000000  -0.000000  -0.000000  -0.000000
   66  N  3  S   -6.439619  -0.000000  -0.000000   5.560112  -4.528654
   67  N  3  X    0.000000  -0.000000  -0.000000  -0.000000  -0.000000
   68  N  3  Y    0.000000  -0.000000  -0.000000  -0.000000  -0.000000
   69  N  3  Z    2.104801  -0.000000  -0.000000  -0.523922   0.625598
   70  N  3 XX   -0.044377   0.412465  -0.000000   0.319219  -0.092575
   71  N  3 YY   -0.044377  -0.412465  -0.000000   0.319219  -0.092575
   72  N  3 ZZ    0.088754  -0.000000  -0.000000  -0.638439   0.185149
   73  N  3 XY    0.000000  -0.000000   0.476273  -0.000000  -0.000000
   74  N  3 XZ    0.000000  -0.000000  -0.000000  -0.000000  -0.000000
   75  N  3 YZ    0.000000  -0.000000  -0.000000  -0.000000  -0.000000

                     31         32         33         34         35
                    0.7728     0.7728     0.8137     0.8137     0.9053
                     E2         E2         E1         E1         A1  
    1  O  1  S   -0.000000  -0.000000   0.000000   0.000000   0.020998
    2  O  1  S   -0.000000  -0.000000   0.000000   0.000000  -0.045933
    3  O  1  S   -0.000000  -0.000000   0.000000   0.000000  -0.498446
    4  O  1  X   -0.000000  -0.000000  -0.095027   0.000000  -0.000000
    5  O  1  Y   -0.000000  -0.000000   0.000000  -0.095027  -0.000000
    6  O  1  Z   -0.000000  -0.000000   0.000000   0.000000  -0.189696
    7  O  1  X   -0.000000  -0.000000   0.005475   0.000000  -0.000000
    8  O  1  Y   -0.000000  -0.000000   0.000000   0.005475  -0.000000
    9  O  1  Z   -0.000000  -0.000000   0.000000   0.000000  -0.844936
   10  O  1 XX   -0.001744  -0.000000   0.000000   0.000000  -0.002696
   11  O  1 YY    0.001744  -0.000000   0.000000   0.000000  -0.002696
   12  O  1 ZZ   -0.000000  -0.000000   0.000000   0.000000   0.005393
   13  O  1 XY   -0.000000  -0.002014   0.000000   0.000000  -0.000000
   14  O  1 XZ   -0.000000  -0.000000   0.008758   0.000000  -0.000000
   15  O  1 YZ   -0.000000  -0.000000   0.000000   0.008758  -0.000000
   16  O  1  S   -0.000000  -0.000000   0.000000   0.000000  -2.071606
   17  O  1  X   -0.000000  -0.000000  -0.356561   0.000000  -0.000000
   18  O  1  Y   -0.000000  -0.000000   0.000000  -0.356561  -0.000000
   19  O  1  Z   -0.000000  -0.000000   0.000000   0.000000  -0.270489
   20  O  1 XX   -0.258181  -0.000000   0.000000   0.000000   0.152496
   21  O  1 YY    0.258181  -0.000000   0.000000   0.000000   0.152496
   22  O  1 ZZ   -0.000000  -0.000000   0.000000   0.000000  -0.304992
   23  O  1 XY   -0.000000  -0.298122   0.000000   0.000000  -0.000000
   24  O  1 XZ   -0.000000  -0.000000   0.246718   0.000000  -0.000000
   25  O  1 YZ   -0.000000  -0.000000   0.000000   0.246718  -0.000000
   26  N  2  S   -0.000000  -0.000000   0.000000   0.000000   0.104072
   27  N  2  S   -0.000000  -0.000000   0.000000   0.000000   0.013666
   28  N  2  S   -0.000000  -0.000000   0.000000   0.000000  -5.167475
   29  N  2  X   -0.000000  -0.000000   0.155563   0.000000  -0.000000
   30  N  2  Y   -0.000000  -0.000000   0.000000   0.155563  -0.000000
   31  N  2  Z   -0.000000  -0.000000   0.000000   0.000000  -0.233837
   32  N  2  X   -0.000000  -0.000000   0.602631   0.000000  -0.000000
   33  N  2  Y   -0.000000  -0.000000   0.000000   0.602631  -0.000000
   34  N  2  Z   -0.000000  -0.000000   0.000000   0.000000  -6.469674
   35  N  2 XX    0.011746  -0.000000   0.000000   0.000000  -0.001912
   36  N  2 YY   -0.011746  -0.000000   0.000000   0.000000  -0.001912
   37  N  2 ZZ   -0.000000  -0.000000   0.000000   0.000000   0.003824
   38  N  2 XY   -0.000000   0.013563   0.000000   0.000000  -0.000000
   39  N  2 XZ   -0.000000  -0.000000  -0.048031   0.000000  -0.000000
   40  N  2 YZ   -0.000000  -0.000000   0.000000  -0.048031  -0.000000
   41  N  2  S   -0.000000  -0.000000   0.000000   0.000000 -10.614556
   42  N  2  X   -0.000000  -0.000000   0.931782   0.000000  -0.000000
   43  N  2  Y   -0.000000  -0.000000   0.000000   0.931782  -0.000000
   44  N  2  Z   -0.000000  -0.000000   0.000000   0.000000  -3.875826
   45  N  2 XX   -0.600039  -0.000000   0.000000   0.000000   0.901263
   46  N  2 YY    0.600039  -0.000000   0.000000   0.000000   0.901263
   47  N  2 ZZ   -0.000000  -0.000000   0.000000   0.000000  -1.802526
   48  N  2 XY   -0.000000  -0.692865   0.000000   0.000000  -0.000000
   49  N  2 XZ   -0.000000  -0.000000   0.227346   0.000000  -0.000000
   50  N  2 YZ   -0.000000  -0.000000   0.000000   0.227346  -0.000000
   51  N  3  S   -0.000000  -0.000000   0.000000   0.000000  -0.128026
   52  N  3  S   -0.000000  -0.000000   0.000000   0.000000   0.006963
   53  N  3  S   -0.000000  -0.000000   0.000000   0.000000   6.305917
   54  N  3  X   -0.000000  -0.000000  -0.094056   0.000000  -0.000000
   55  N  3  Y   -0.000000  -0.000000   0.000000  -0.094056  -0.000000
   56  N  3  Z   -0.000000  -0.000000   0.000000   0.000000  -0.254505
   57  N  3  X   -0.000000  -0.000000  -0.147592   0.000000  -0.000000
   58  N  3  Y   -0.000000  -0.000000   0.000000  -0.147592  -0.000000
   59  N  3  Z   -0.000000  -0.000000   0.000000   0.000000  -5.437539
   60  N  3 XX   -0.024562  -0.000000   0.000000   0.000000   0.005920
   61  N  3 YY    0.024562  -0.000000   0.000000   0.000000   0.005920
   62  N  3 ZZ   -0.000000  -0.000000   0.000000   0.000000  -0.011840
   63  N  3 XY   -0.000000  -0.028362   0.000000   0.000000  -0.000000
   64  N  3 XZ   -0.000000  -0.000000  -0.014458   0.000000  -0.000000
   65  N  3 YZ   -0.000000  -0.000000   0.000000  -0.014458  -0.000000
   66  N  3  S   -0.000000  -0.000000   0.000000   0.000000  12.062470
   67  N  3  X   -0.000000  -0.000000  -0.827284   0.000000  -0.000000
   68  N  3  Y   -0.000000  -0.000000   0.000000  -0.827284  -0.000000
   69  N  3  Z   -0.000000  -0.000000   0.000000   0.000000  -3.347339
   70  N  3 XX    0.826884  -0.000000   0.000000   0.000000  -1.114847
   71  N  3 YY   -0.826884  -0.000000   0.000000   0.000000  -1.114847
   72  N  3 ZZ   -0.000000  -0.000000   0.000000   0.000000   2.229693
   73  N  3 XY   -0.000000   0.954804   0.000000   0.000000  -0.000000
   74  N  3 XZ   -0.000000  -0.000000   1.368801   0.000000  -0.000000
   75  N  3 YZ   -0.000000  -0.000000   0.000000   1.368801  -0.000000

                     36         37         38         39         40
                    0.9876     0.9876     1.0324     1.0332     1.0332
                     E1         E1         A1         E1         E1  
    1  O  1  S   -0.000000  -0.000000  -0.114235   0.000000   0.000000
    2  O  1  S   -0.000000  -0.000000  -0.055559   0.000000   0.000000
    3  O  1  S   -0.000000  -0.000000   3.738990   0.000000   0.000000
    4  O  1  X    0.266118  -0.000000  -0.000000   0.046152   0.000000
    5  O  1  Y   -0.000000   0.266118  -0.000000   0.000000   0.046152
    6  O  1  Z   -0.000000  -0.000000   0.114039   0.000000   0.000000
    7  O  1  X    1.081446  -0.000000  -0.000000   0.313685   0.000000
    8  O  1  Y   -0.000000   1.081446  -0.000000   0.000000   0.313685
    9  O  1  Z   -0.000000  -0.000000   2.703040   0.000000   0.000000
   10  O  1 XX   -0.000000  -0.000000   0.002519   0.000000   0.000000
   11  O  1 YY   -0.000000  -0.000000   0.002519   0.000000   0.000000
   12  O  1 ZZ   -0.000000  -0.000000  -0.005038   0.000000   0.000000
   13  O  1 XY   -0.000000  -0.000000  -0.000000   0.000000   0.000000
   14  O  1 XZ   -0.035920  -0.000000  -0.000000  -0.010049   0.000000
   15  O  1 YZ   -0.000000  -0.035920  -0.000000   0.000000  -0.010049
   16  O  1  S   -0.000000  -0.000000   4.650756   0.000000   0.000000
   17  O  1  X   -0.119313  -0.000000  -0.000000  -0.161969   0.000000
   18  O  1  Y   -0.000000  -0.119313  -0.000000   0.000000  -0.161969
   19  O  1  Z   -0.000000  -0.000000   0.945908   0.000000   0.000000
   20  O  1 XX   -0.000000  -0.000000  -0.548628   0.000000   0.000000
   21  O  1 YY   -0.000000  -0.000000  -0.548628   0.000000   0.000000
   22  O  1 ZZ   -0.000000  -0.000000   1.097257   0.000000   0.000000
   23  O  1 XY   -0.000000  -0.000000  -0.000000   0.000000   0.000000
   24  O  1 XZ    0.539475  -0.000000  -0.000000  -0.297550   0.000000
   25  O  1 YZ   -0.000000   0.539475  -0.000000   0.000000  -0.297550
   26  N  2  S   -0.000000  -0.000000   0.033170   0.000000   0.000000
   27  N  2  S   -0.000000  -0.000000  -0.051131   0.000000   0.000000
   28  N  2  S   -0.000000  -0.000000  -3.653029   0.000000   0.000000
   29  N  2  X    0.763568  -0.000000  -0.000000  -0.254868   0.000000
   30  N  2  Y   -0.000000   0.763568  -0.000000   0.000000  -0.254868
   31  N  2  Z   -0.000000  -0.000000  -0.208391   0.000000   0.000000
   32  N  2  X   -0.887844  -0.000000  -0.000000   0.904599   0.000000
   33  N  2  Y   -0.000000  -0.887844  -0.000000   0.000000   0.904599
   34  N  2  Z   -0.000000  -0.000000   4.851193   0.000000   0.000000
   35  N  2 XX   -0.000000  -0.000000  -0.006519   0.000000   0.000000
   36  N  2 YY   -0.000000  -0.000000  -0.006519   0.000000   0.000000
   37  N  2 ZZ   -0.000000  -0.000000   0.013038   0.000000   0.000000
   38  N  2 XY   -0.000000  -0.000000  -0.000000   0.000000   0.000000
   39  N  2 XZ   -0.027798  -0.000000  -0.000000  -0.024122   0.000000
   40  N  2 YZ   -0.000000  -0.027798  -0.000000   0.000000  -0.024122
   41  N  2  S   -0.000000  -0.000000  -1.119796   0.000000   0.000000
   42  N  2  X    1.005694  -0.000000  -0.000000   0.289664   0.000000
   43  N  2  Y   -0.000000   1.005694  -0.000000   0.000000   0.289664
   44  N  2  Z   -0.000000  -0.000000   1.850765   0.000000   0.000000
   45  N  2 XX   -0.000000  -0.000000   0.635803   0.000000   0.000000
   46  N  2 YY   -0.000000  -0.000000   0.635803   0.000000   0.000000
   47  N  2 ZZ   -0.000000  -0.000000  -1.271606   0.000000   0.000000
   48  N  2 XY   -0.000000  -0.000000  -0.000000   0.000000   0.000000
   49  N  2 XZ    2.134758  -0.000000  -0.000000   0.951730   0.000000
   50  N  2 YZ   -0.000000   2.134758  -0.000000   0.000000   0.951730
   51  N  3  S   -0.000000  -0.000000  -0.036430   0.000000   0.000000
   52  N  3  S   -0.000000  -0.000000  -0.152665   0.000000   0.000000
   53  N  3  S   -0.000000  -0.000000  -0.718893   0.000000   0.000000
   54  N  3  X    0.027954  -0.000000  -0.000000  -0.824891   0.000000
   55  N  3  Y   -0.000000   0.027954  -0.000000   0.000000  -0.824891
   56  N  3  Z   -0.000000  -0.000000  -0.342987   0.000000   0.000000
   57  N  3  X   -1.230989  -0.000000  -0.000000   0.200172   0.000000
   58  N  3  Y   -0.000000  -1.230989  -0.000000   0.000000   0.200172
   59  N  3  Z   -0.000000  -0.000000   1.238940   0.000000   0.000000
   60  N  3 XX   -0.000000  -0.000000   0.029672   0.000000   0.000000
   61  N  3 YY   -0.000000  -0.000000   0.029672   0.000000   0.000000
   62  N  3 ZZ   -0.000000  -0.000000  -0.059345   0.000000   0.000000
   63  N  3 XY   -0.000000  -0.000000  -0.000000   0.000000   0.000000
   64  N  3 XZ   -0.051658  -0.000000  -0.000000  -0.015052   0.000000
   65  N  3 YZ   -0.000000  -0.051658  -0.000000   0.000000  -0.015052
   66  N  3  S   -0.000000  -0.000000  -2.405794   0.000000   0.000000
   67  N  3  X   -0.467385  -0.000000  -0.000000  -0.636686   0.000000
   68  N  3  Y   -0.000000  -0.467385  -0.000000   0.000000  -0.636686
   69  N  3  Z   -0.000000  -0.000000   0.265016   0.000000   0.000000
   70  N  3 XX   -0.000000  -0.000000  -0.225360   0.000000   0.000000
   71  N  3 YY   -0.000000  -0.000000  -0.225360   0.000000   0.000000
   72  N  3 ZZ   -0.000000  -0.000000   0.450720   0.000000   0.000000
   73  N  3 XY   -0.000000  -0.000000  -0.000000   0.000000   0.000000
   74  N  3 XZ    0.882862  -0.000000  -0.000000   0.654023   0.000000
   75  N  3 YZ   -0.000000   0.882862  -0.000000   0.000000   0.654023

                     41         42         43         44         45
                    1.1229     1.1229     1.2276     1.2276     1.2306
                     E2         E2         E1         E1         A1  
    1  O  1  S    0.000000   0.000000  -0.000000  -0.000000  -0.003350
    2  O  1  S    0.000000   0.000000  -0.000000  -0.000000  -0.081316
    3  O  1  S    0.000000   0.000000  -0.000000  -0.000000  -0.803949
    4  O  1  X    0.000000   0.000000   0.532623  -0.000000  -0.000000
    5  O  1  Y    0.000000   0.000000  -0.000000   0.532623  -0.000000
    6  O  1  Z    0.000000   0.000000  -0.000000  -0.000000  -0.294625
    7  O  1  X    0.000000   0.000000  -0.212551  -0.000000  -0.000000
    8  O  1  Y    0.000000   0.000000  -0.000000  -0.212551  -0.000000
    9  O  1  Z    0.000000   0.000000  -0.000000  -0.000000  -0.652062
   10  O  1 XX   -0.021525   0.000000  -0.000000  -0.000000  -0.006190
   11  O  1 YY    0.021525   0.000000  -0.000000  -0.000000  -0.006190
   12  O  1 ZZ    0.000000   0.000000  -0.000000  -0.000000   0.012380
   13  O  1 XY    0.000000  -0.024855  -0.000000  -0.000000  -0.000000
   14  O  1 XZ    0.000000   0.000000  -0.016589  -0.000000  -0.000000
   15  O  1 YZ    0.000000   0.000000  -0.000000  -0.016589  -0.000000
   16  O  1  S    0.000000   0.000000  -0.000000  -0.000000  -2.518596
   17  O  1  X    0.000000   0.000000   1.095588  -0.000000  -0.000000
   18  O  1  Y    0.000000   0.000000  -0.000000   1.095588  -0.000000
   19  O  1  Z    0.000000   0.000000  -0.000000  -0.000000  -1.881182
   20  O  1 XX    0.951106   0.000000  -0.000000  -0.000000   0.391575
   21  O  1 YY   -0.951106   0.000000  -0.000000  -0.000000   0.391575
   22  O  1 ZZ    0.000000   0.000000  -0.000000  -0.000000  -0.783149
   23  O  1 XY    0.000000   1.098243  -0.000000  -0.000000  -0.000000
   24  O  1 XZ    0.000000   0.000000   1.154189  -0.000000  -0.000000
   25  O  1 YZ    0.000000   0.000000  -0.000000   1.154189  -0.000000
   26  N  2  S    0.000000   0.000000  -0.000000  -0.000000  -0.201597
   27  N  2  S    0.000000   0.000000  -0.000000  -0.000000  -0.333703
   28  N  2  S    0.000000   0.000000  -0.000000  -0.000000   5.762060
   29  N  2  X    0.000000   0.000000  -0.276075  -0.000000  -0.000000
   30  N  2  Y    0.000000   0.000000  -0.000000  -0.276075  -0.000000
   31  N  2  Z    0.000000   0.000000  -0.000000  -0.000000  -0.211534
   32  N  2  X    0.000000   0.000000  -0.540366  -0.000000  -0.000000
   33  N  2  Y    0.000000   0.000000  -0.000000  -0.540366  -0.000000
   34  N  2  Z    0.000000   0.000000  -0.000000  -0.000000   1.972312
   35  N  2 XX    0.006425   0.000000  -0.000000  -0.000000  -0.044772
   36  N  2 YY   -0.006425   0.000000  -0.000000  -0.000000  -0.044772
   37  N  2 ZZ    0.000000   0.000000  -0.000000  -0.000000   0.089544
   38  N  2 XY    0.000000   0.007419  -0.000000  -0.000000  -0.000000
   39  N  2 XZ    0.000000   0.000000  -0.068266  -0.000000  -0.000000
   40  N  2 YZ    0.000000   0.000000  -0.000000  -0.068266  -0.000000
   41  N  2  S    0.000000   0.000000  -0.000000  -0.000000  16.039468
   42  N  2  X    0.000000   0.000000  -0.993788  -0.000000  -0.000000
   43  N  2  Y    0.000000   0.000000  -0.000000  -0.993788  -0.000000
   44  N  2  Z    0.000000   0.000000  -0.000000  -0.000000   4.849944
   45  N  2 XX   -0.738822   0.000000  -0.000000  -0.000000  -0.560900
   46  N  2 YY    0.738822   0.000000  -0.000000  -0.000000  -0.560900
   47  N  2 ZZ    0.000000   0.000000  -0.000000  -0.000000   1.121801
   48  N  2 XY    0.000000  -0.853119  -0.000000  -0.000000  -0.000000
   49  N  2 XZ    0.000000   0.000000   0.728468  -0.000000  -0.000000
   50  N  2 YZ    0.000000   0.000000  -0.000000   0.728468  -0.000000
   51  N  3  S    0.000000   0.000000  -0.000000  -0.000000  -0.090173
   52  N  3  S    0.000000   0.000000  -0.000000  -0.000000  -0.341498
   53  N  3  S    0.000000   0.000000  -0.000000  -0.000000  -2.556473
   54  N  3  X    0.000000   0.000000  -0.261450  -0.000000  -0.000000
   55  N  3  Y    0.000000   0.000000  -0.000000  -0.261450  -0.000000
   56  N  3  Z    0.000000   0.000000  -0.000000  -0.000000  -0.794640
   57  N  3  X    0.000000   0.000000   0.124335  -0.000000  -0.000000
   58  N  3  Y    0.000000   0.000000  -0.000000   0.124335  -0.000000
   59  N  3  Z    0.000000   0.000000  -0.000000  -0.000000   4.307812
   60  N  3 XX   -0.011459   0.000000  -0.000000  -0.000000   0.031278
   61  N  3 YY    0.011459   0.000000  -0.000000  -0.000000   0.031278
   62  N  3 ZZ    0.000000   0.000000  -0.000000  -0.000000  -0.062556
   63  N  3 XY    0.000000  -0.013232  -0.000000  -0.000000  -0.000000
   64  N  3 XZ    0.000000   0.000000   0.021331  -0.000000  -0.000000
   65  N  3 YZ    0.000000   0.000000  -0.000000   0.021331  -0.000000
   66  N  3  S    0.000000   0.000000  -0.000000  -0.000000 -14.732608
   67  N  3  X    0.000000   0.000000   0.324884  -0.000000  -0.000000
   68  N  3  Y    0.000000   0.000000  -0.000000   0.324884  -0.000000
   69  N  3  Z    0.000000   0.000000  -0.000000  -0.000000   3.473884
   70  N  3 XX    0.417103   0.000000  -0.000000  -0.000000   0.555500
   71  N  3 YY   -0.417103   0.000000  -0.000000  -0.000000   0.555500
   72  N  3 ZZ    0.000000   0.000000  -0.000000  -0.000000  -1.111001
   73  N  3 XY    0.000000   0.481629  -0.000000  -0.000000  -0.000000
   74  N  3 XZ    0.000000   0.000000  -0.168051  -0.000000  -0.000000
   75  N  3 YZ    0.000000   0.000000  -0.000000  -0.168051  -0.000000

                     46         47         48         49         50
                    1.4045     1.4045     1.4926     1.7657     1.9137
                     E1         E1         A1         A1         E1  
    1  O  1  S   -0.000000  -0.000000  -0.009856   0.209903   0.000000
    2  O  1  S   -0.000000  -0.000000   0.116647   0.540563   0.000000
    3  O  1  S   -0.000000  -0.000000   2.221571  -0.088824   0.000000
    4  O  1  X   -0.317979  -0.000000  -0.000000  -0.000000  -0.720772
    5  O  1  Y   -0.000000  -0.317979  -0.000000  -0.000000   0.000000
    6  O  1  Z   -0.000000  -0.000000  -0.625276  -0.534232   0.000000
    7  O  1  X   -0.382187  -0.000000  -0.000000  -0.000000   3.391851
    8  O  1  Y   -0.000000  -0.382187  -0.000000  -0.000000   0.000000
    9  O  1  Z   -0.000000  -0.000000   3.263481   1.933758   0.000000
   10  O  1 XX   -0.000000  -0.000000  -0.027509   0.022497   0.000000
   11  O  1 YY   -0.000000  -0.000000  -0.027509   0.022497   0.000000
   12  O  1 ZZ   -0.000000  -0.000000   0.055018  -0.044995   0.000000
   13  O  1 XY   -0.000000  -0.000000  -0.000000  -0.000000   0.000000
   14  O  1 XZ    0.033849  -0.000000  -0.000000  -0.000000  -0.039832
   15  O  1 YZ   -0.000000   0.033849  -0.000000  -0.000000   0.000000
   16  O  1  S   -0.000000  -0.000000   6.818608   4.576800   0.000000
   17  O  1  X   -0.141974  -0.000000  -0.000000  -0.000000  -0.351482
   18  O  1  Y   -0.000000  -0.141974  -0.000000  -0.000000   0.000000
   19  O  1  Z   -0.000000  -0.000000   0.764665   0.865394   0.000000
   20  O  1 XX   -0.000000  -0.000000  -0.019629  -0.511982   0.000000
   21  O  1 YY   -0.000000  -0.000000  -0.019629  -0.511982   0.000000
   22  O  1 ZZ   -0.000000  -0.000000   0.039259   1.023965   0.000000
   23  O  1 XY   -0.000000  -0.000000  -0.000000  -0.000000   0.000000
   24  O  1 XZ   -0.158365  -0.000000  -0.000000  -0.000000   1.889680
   25  O  1 YZ   -0.000000  -0.158365  -0.000000  -0.000000   0.000000
   26  N  2  S   -0.000000  -0.000000   0.301377   0.195041   0.000000
   27  N  2  S   -0.000000  -0.000000   0.631709   0.380297   0.000000
   28  N  2  S   -0.000000  -0.000000  -3.470731  -2.707735   0.000000
   29  N  2  X    0.491902  -0.000000  -0.000000  -0.000000  -0.281042
   30  N  2  Y   -0.000000   0.491902  -0.000000  -0.000000   0.000000
   31  N  2  Z   -0.000000  -0.000000  -0.476552   0.730922   0.000000
   32  N  2  X   -2.533831  -0.000000  -0.000000  -0.000000  -0.298432
   33  N  2  Y   -0.000000  -2.533831  -0.000000  -0.000000   0.000000
   34  N  2  Z   -0.000000  -0.000000   4.783058  -0.138943   0.000000
   35  N  2 XX   -0.000000  -0.000000   0.104883  -0.018573   0.000000
   36  N  2 YY   -0.000000  -0.000000   0.104883  -0.018573   0.000000
   37  N  2 ZZ   -0.000000  -0.000000  -0.209766   0.037145   0.000000
   38  N  2 XY   -0.000000  -0.000000  -0.000000  -0.000000   0.000000
   39  N  2 XZ   -0.032823  -0.000000  -0.000000  -0.000000   0.203908
   40  N  2 YZ   -0.000000  -0.032823  -0.000000  -0.000000   0.000000
   41  N  2  S   -0.000000  -0.000000  -2.951710  -3.598037   0.000000
   42  N  2  X    0.155952  -0.000000  -0.000000  -0.000000   0.697327
   43  N  2  Y   -0.000000   0.155952  -0.000000  -0.000000   0.000000
   44  N  2  Z   -0.000000  -0.000000   3.080785   1.094428   0.000000
   45  N  2 XX   -0.000000  -0.000000  -0.003528   0.408749   0.000000
   46  N  2 YY   -0.000000  -0.000000  -0.003528   0.408749   0.000000
   47  N  2 ZZ   -0.000000  -0.000000   0.007056  -0.817497   0.000000
   48  N  2 XY   -0.000000  -0.000000  -0.000000  -0.000000   0.000000
   49  N  2 XZ   -2.476555  -0.000000  -0.000000  -0.000000   3.808291
   50  N  2 YZ   -0.000000  -2.476555  -0.000000  -0.000000   0.000000
[...]
   49  N  2 XZ    0.000000   0.000000   0.000000  -0.138653   0.000000
   50  N  2 YZ   -0.030900   0.000000   0.000000   0.000000  -0.138653
   51  N  3  S    0.000000   0.019883   0.023193   0.000000   0.000000
   52  N  3  S    0.000000   0.118034  -0.008240   0.000000   0.000000
   53  N  3  S    0.000000   0.009933  -1.895093   0.000000   0.000000
   54  N  3  X    0.000000   0.000000   0.000000  -0.149030   0.000000
   55  N  3  Y   -0.368435   0.000000   0.000000   0.000000  -0.149030
   56  N  3  Z    0.000000  -0.013799  -0.059161   0.000000   0.000000
   57  N  3  X    0.000000   0.000000   0.000000   0.006489   0.000000
   58  N  3  Y   -0.234816   0.000000   0.000000   0.000000   0.006489
   59  N  3  Z    0.000000   0.134474   1.164326   0.000000   0.000000
   60  N  3 XX    0.000000  -0.001843  -0.002240   0.000000   0.000000
   61  N  3 YY    0.000000  -0.001843  -0.002240   0.000000   0.000000
   62  N  3 ZZ    0.000000   0.003687   0.004481   0.000000   0.000000
   63  N  3 XY    0.000000   0.000000   0.000000   0.000000   0.000000
   64  N  3 XZ    0.000000   0.000000   0.000000  -0.029419   0.000000
   65  N  3 YZ    0.023561   0.000000   0.000000   0.000000  -0.029419
   66  N  3  S    0.000000   5.504506 -20.251501   0.000000   0.000000
   67  N  3  X    0.000000   0.000000   0.000000  -1.204210   0.000000
   68  N  3  Y   -0.032396   0.000000   0.000000   0.000000  -1.204210
   69  N  3  Z    0.000000  -2.038110   5.235283   0.000000   0.000000
   70  N  3 XX    0.000000   0.005990   0.130112   0.000000   0.000000
   71  N  3 YY    0.000000   0.005990   0.130112   0.000000   0.000000
   72  N  3 ZZ    0.000000  -0.011980  -0.260225   0.000000   0.000000
   73  N  3 XY    0.000000   0.000000   0.000000   0.000000   0.000000
   74  N  3 XZ    0.000000   0.000000   0.000000  -0.023045   0.000000
   75  N  3 YZ    0.013529   0.000000   0.000000   0.000000  -0.023045

                     16         17         18         19         20
                    0.1737     0.1737     0.1825     0.2183     0.2183
                     E1         E1         A1         E1         E1  
    1  O  1  S    0.000000   0.000000   0.004762   0.000000   0.000000
    2  O  1  S    0.000000   0.000000   0.013426   0.000000   0.000000
    3  O  1  S    0.000000   0.000000  -0.331224   0.000000   0.000000
    4  O  1  X    0.229431   0.000000   0.000000   0.068683   0.000000
    5  O  1  Y    0.000000   0.229431   0.000000   0.000000   0.068683
    6  O  1  Z    0.000000   0.000000  -0.086085   0.000000   0.000000
    7  O  1  X    0.084235   0.000000   0.000000   0.164195   0.000000
    8  O  1  Y    0.000000   0.084235   0.000000   0.000000   0.164195
    9  O  1  Z    0.000000   0.000000   0.005574   0.000000   0.000000
   10  O  1 XX    0.000000   0.000000   0.006289   0.000000   0.000000
   11  O  1 YY    0.000000   0.000000   0.006289   0.000000   0.000000
   12  O  1 ZZ    0.000000   0.000000  -0.012577   0.000000   0.000000
   13  O  1 XY    0.000000   0.000000   0.000000   0.000000   0.000000
   14  O  1 XZ    0.002407   0.000000   0.000000  -0.020766   0.000000
   15  O  1 YZ    0.000000   0.002407   0.000000   0.000000  -0.020766
   16  O  1  S    0.000000   0.000000   3.010509   0.000000   0.000000
   17  O  1  X    0.756595   0.000000   0.000000   0.479553   0.000000
   18  O  1  Y    0.000000   0.756595   0.000000   0.000000   0.479553
   19  O  1  Z    0.000000   0.000000   1.236889   0.000000   0.000000
   20  O  1 XX    0.000000   0.000000  -0.049612   0.000000   0.000000
   21  O  1 YY    0.000000   0.000000  -0.049612   0.000000   0.000000
   22  O  1 ZZ    0.000000   0.000000   0.099225   0.000000   0.000000
   23  O  1 XY    0.000000   0.000000   0.000000   0.000000   0.000000
   24  O  1 XZ   -0.089463   0.000000   0.000000   0.057894   0.000000
   25  O  1 YZ    0.000000  -0.089463   0.000000   0.000000   0.057894
   26  N  2  S    0.000000   0.000000  -0.036134   0.000000   0.000000
   27  N  2  S    0.000000   0.000000  -0.107493   0.000000   0.000000
   28  N  2  S    0.000000   0.000000  -0.833431   0.000000   0.000000
   29  N  2  X   -0.198675   0.000000   0.000000  -0.286946   0.000000
   30  N  2  Y    0.000000  -0.198675   0.000000   0.000000  -0.286946
   31  N  2  Z    0.000000   0.000000  -0.000339   0.000000   0.000000
   32  N  2  X   -0.246521   0.000000   0.000000  -0.295498   0.000000
   33  N  2  Y    0.000000  -0.246521   0.000000   0.000000  -0.295498
   34  N  2  Z    0.000000   0.000000   0.113345   0.000000   0.000000
   35  N  2 XX    0.000000   0.000000   0.025507   0.000000   0.000000
   36  N  2 YY    0.000000   0.000000   0.025507   0.000000   0.000000
   37  N  2 ZZ    0.000000   0.000000  -0.051013   0.000000   0.000000
   38  N  2 XY    0.000000   0.000000   0.000000   0.000000   0.000000
   39  N  2 XZ    0.010235   0.000000   0.000000   0.013934   0.000000
   40  N  2 YZ    0.000000   0.010235   0.000000   0.000000   0.013934
   41  N  2  S    0.000000   0.000000  -4.563570   0.000000   0.000000
   42  N  2  X   -2.870351   0.000000   0.000000   1.086893   0.000000
   43  N  2  Y    0.000000  -2.870351   0.000000   0.000000   1.086893
   44  N  2  Z    0.000000   0.000000   1.529525   0.000000   0.000000
   45  N  2 XX    0.000000   0.000000  -0.172277   0.000000   0.000000
   46  N  2 YY    0.000000   0.000000  -0.172277   0.000000   0.000000
   47  N  2 ZZ    0.000000   0.000000   0.344554   0.000000   0.000000
   48  N  2 XY    0.000000   0.000000   0.000000   0.000000   0.000000
   49  N  2 XZ   -0.304109   0.000000   0.000000   0.278002   0.000000
   50  N  2 YZ    0.000000  -0.304109   0.000000   0.000000   0.278002
   51  N  3  S    0.000000   0.000000  -0.017502   0.000000   0.000000
   52  N  3  S    0.000000   0.000000  -0.092257   0.000000   0.000000
   53  N  3  S    0.000000   0.000000  -0.697453   0.000000   0.000000
   54  N  3  X    0.255412   0.000000   0.000000   0.312715   0.000000
   55  N  3  Y    0.000000   0.255412   0.000000   0.000000   0.312715
   56  N  3  Z    0.000000   0.000000   0.028095   0.000000   0.000000
   57  N  3  X    0.627857   0.000000   0.000000   0.301973   0.000000
   58  N  3  Y    0.000000   0.627857   0.000000   0.000000   0.301973
   59  N  3  Z    0.000000   0.000000  -0.223193   0.000000   0.000000
   60  N  3 XX    0.000000   0.000000   0.004938   0.000000   0.000000
   61  N  3 YY    0.000000   0.000000   0.004938   0.000000   0.000000
   62  N  3 ZZ    0.000000   0.000000  -0.009877   0.000000   0.000000
   63  N  3 XY    0.000000   0.000000   0.000000   0.000000   0.000000
   64  N  3 XZ    0.009009   0.000000   0.000000  -0.006701   0.000000
   65  N  3 YZ    0.000000   0.009009   0.000000   0.000000  -0.006701
   66  N  3  S    0.000000   0.000000   2.459317   0.000000   0.000000
   67  N  3  X    1.591089   0.000000   0.000000  -1.672699   0.000000
   68  N  3  Y    0.000000   1.591089   0.000000   0.000000  -1.672699
   69  N  3  Z    0.000000   0.000000  -1.904743   0.000000   0.000000
   70  N  3 XX    0.000000   0.000000  -0.094089   0.000000   0.000000
   71  N  3 YY    0.000000   0.000000  -0.094089   0.000000   0.000000
   72  N  3 ZZ    0.000000   0.000000   0.188177   0.000000   0.000000
   73  N  3 XY    0.000000   0.000000   0.000000   0.000000   0.000000
   74  N  3 XZ   -0.141924   0.000000   0.000000   0.181091   0.000000
   75  N  3 YZ    0.000000  -0.141924   0.000000   0.000000   0.181091

                     21
                    0.2669
                     A1  
    1  O  1  S    0.007139
    2  O  1  S   -0.003267
    3  O  1  S   -0.084605
    4  O  1  X    0.000000
    5  O  1  Y    0.000000
    6  O  1  Z   -0.012448
    7  O  1  X    0.000000
    8  O  1  Y    0.000000
    9  O  1  Z    0.058007
   10  O  1 XX   -0.011710
   11  O  1 YY   -0.011710
   12  O  1 ZZ    0.023420
   13  O  1 XY    0.000000
   14  O  1 XZ    0.000000
   15  O  1 YZ    0.000000
   16  O  1  S    1.825928
   17  O  1  X    0.000000
   18  O  1  Y    0.000000
   19  O  1  Z   -2.701826
   20  O  1 XX    0.022001
   21  O  1 YY    0.022001
   22  O  1 ZZ   -0.044002
   23  O  1 XY    0.000000
   24  O  1 XZ    0.000000
   25  O  1 YZ    0.000000
   26  N  2  S    0.026912
   27  N  2  S    0.073241
   28  N  2  S   -1.095778
   29  N  2  X    0.000000
   30  N  2  Y    0.000000
   31  N  2  Z   -0.071267
   32  N  2  X    0.000000
   33  N  2  Y    0.000000
   34  N  2  Z   -0.786148
   35  N  2 XX    0.005677
   36  N  2 YY    0.005677
   37  N  2 ZZ   -0.011355
   38  N  2 XY    0.000000
   39  N  2 XZ    0.000000
   40  N  2 YZ    0.000000
   41  N  2  S    7.021651
   42  N  2  X    0.000000
   43  N  2  Y    0.000000
   44  N  2  Z    7.018199
   45  N  2 XX    0.078624
   46  N  2 YY    0.078624
   47  N  2 ZZ   -0.157248
   48  N  2 XY    0.000000
   49  N  2 XZ    0.000000
   50  N  2 YZ    0.000000
   51  N  3  S   -0.022627
   52  N  3  S   -0.068062
   53  N  3  S    0.952848
   54  N  3  X    0.000000
   55  N  3  Y    0.000000
   56  N  3  Z    0.002290
   57  N  3  X    0.000000
   58  N  3  Y    0.000000
   59  N  3  Z   -0.721259
   60  N  3 XX    0.008068
   61  N  3 YY    0.008068
   62  N  3 ZZ   -0.016136
   63  N  3 XY    0.000000
   64  N  3 XZ    0.000000
   65  N  3 YZ    0.000000
   66  N  3  S   -8.452119
   67  N  3  X    0.000000
   68  N  3  Y    0.000000
   69  N  3  Z   -0.429665
   70  N  3 XX   -0.127970
   71  N  3 YY   -0.127970
   72  N  3 ZZ    0.255940
   73  N  3 XY    0.000000
   74  N  3 XZ    0.000000
   75  N  3 YZ    0.000000

     ----------------------------------------------------------------
     PROPERTY VALUES FOR THE RHF   SELF-CONSISTENT FIELD WAVEFUNCTION
     ----------------------------------------------------------------

          -----------------
          ENERGY COMPONENTS
          -----------------

         WAVEFUNCTION NORMALIZATION =       1.0000000000

                ONE ELECTRON ENERGY =    -372.7524333436
                TWO ELECTRON ENERGY =     127.0040151004
           NUCLEAR REPULSION ENERGY =      62.0351573863
                                      ------------------
                       TOTAL ENERGY =    -183.7132608569

 ELECTRON-ELECTRON POTENTIAL ENERGY =     127.0040151004
  NUCLEUS-ELECTRON POTENTIAL ENERGY =    -556.2719411508
   NUCLEUS-NUCLEUS POTENTIAL ENERGY =      62.0351573863
                                      ------------------
             TOTAL POTENTIAL ENERGY =    -367.2327686641
               TOTAL KINETIC ENERGY =     183.5195078072
                 VIRIAL RATIO (V/T) =       2.0010557627

  ...... PI ENERGY ANALYSIS ......

 ENERGY ANALYSIS:
            FOCK ENERGY=   -118.7444281556
          BARE H ENERGY=   -372.7524333436
     ELECTRONIC ENERGY =   -245.7484307496
         KINETIC ENERGY=    183.5195078072
          N-N REPULSION=     62.0351573863
           TOTAL ENERGY=   -183.7132733633
        SIGMA PART(1+2)=   -200.4685585866
               (K,V1,2)=    167.6361255023   -454.9168944386     86.8122103497
           PI PART(1+2)=    -45.2798721630
               (K,V1,2)=     15.8833823049   -101.3550467122     40.1917922443
  SIGMA SKELETON, ERROR=   -138.4334012003     -0.0000000000
             MIXED PART= 0.00000E+00 0.00000E+00 0.00000E+00 0.00000E+00
 ...... END OF PI ENERGY ANALYSIS ......

          ---------------------------------------
          MULLIKEN AND LOWDIN POPULATION ANALYSES
          ---------------------------------------

     ATOMIC MULLIKEN POPULATION IN EACH MOLECULAR ORBITAL

                      1          2          3          4          5

                  2.000000   2.000000   2.000000   2.000000   2.000000

    1             1.996022  -0.000636   0.000220   0.757071   0.617708
    2             0.003477   1.992537   0.003878   1.330793   0.473310
    3             0.000502   0.008099   1.995903  -0.087864   0.908983

                      6          7          8          9         10

                  2.000000   2.000000   2.000000   2.000000   2.000000

    1             1.464171   0.676290   0.676290   0.150134   1.136833
    2             0.256619   1.038207   1.038207   0.128466   0.189737
    3             0.279210   0.285503   0.285503   1.721400   0.673429

                     11

                  2.000000

    1             1.136833
    2             0.189737
    3             0.673429

               ----- POPULATIONS IN EACH AO -----
                             MULLIKEN      LOWDIN
              1  O  1  S      2.00427     1.86550
              2  O  1  S      0.85493     0.62848
              3  O  1  S      1.04874     0.36836
              4  O  1  X      1.02634     0.95479
              5  O  1  Y      1.02634     0.95479
              6  O  1  Z      0.70119     0.64715
              7  O  1  X      0.72771     0.51763
              8  O  1  Y      0.72771     0.51763
              9  O  1  Z      0.30657     0.43913
             10  O  1 XX      0.01435     0.16674
             11  O  1 YY      0.00000     0.16674
             12  O  1 ZZ      0.00000     0.19090
             13  O  1 XY      0.00649     0.00000
             14  O  1 XZ      0.00649     0.00691
             15  O  1 YZ      0.00000     0.00691
             16  O  1  S      0.06402     0.07121
             17  O  1  X      0.02439     0.04953
             18  O  1  Y      0.02439     0.04953
             19  O  1  Z     -0.01797     0.04856
             20  O  1 XX      0.00860     0.03969
             21  O  1 YY      0.00000     0.03969
             22  O  1 ZZ      0.00000     0.10304
             23  O  1 XY      0.02820     0.00000
             24  O  1 XZ      0.02820     0.05788
             25  O  1 YZ      0.00000     0.05788
             26  N  2  S      2.00571     1.81050
             27  N  2  S      0.77636     0.54171
             28  N  2  S      0.65243     0.21192
             29  N  2  X      0.71056     0.60323
             30  N  2  Y      0.71056     0.60323
             31  N  2  Z      0.89060     0.78056
             32  N  2  X      0.39777     0.31924
             33  N  2  Y      0.39777     0.31924
             34  N  2  Z     -0.18492     0.30222
             35  N  2 XX      0.02439     0.08094
             36  N  2 YY      0.00000     0.08094
             37  N  2 ZZ      0.00000     0.25181
             38  N  2 XY      0.06572     0.00000
             39  N  2 XZ      0.06572     0.10717
             40  N  2 YZ      0.00000     0.10717
             41  N  2  S      0.06264     0.05042
             42  N  2  X      0.01311     0.02748
             43  N  2  Y      0.01311     0.02748
             44  N  2  Z     -0.01033     0.07433
             45  N  2 XX     -0.02782     0.00831
             46  N  2 YY      0.00000     0.00831
             47  N  2 ZZ      0.00000     0.32421
             48  N  2 XY      0.04079     0.00000
             49  N  2 XZ      0.04079     0.33532
             50  N  2 YZ      0.00000     0.33532
             51  N  3  S      2.00554     1.83855
             52  N  3  S      0.81940     0.60240
             53  N  3  S      1.02522     0.32824
             54  N  3  X      0.66501     0.57454
             55  N  3  Y      0.66501     0.57454
             56  N  3  Z      0.83700     0.77357
             57  N  3  X      0.28828     0.33730
             58  N  3  Y      0.28828     0.33730
             59  N  3  Z      0.11748     0.39078
             60  N  3 XX      0.02161     0.13948
             61  N  3 YY      0.00000     0.13948
             62  N  3 ZZ      0.00000     0.20862
             63  N  3 XY      0.02401     0.00000
             64  N  3 XZ      0.02401     0.02770
             65  N  3 YZ      0.00000     0.02770
             66  N  3  S      0.04698     0.07046
             67  N  3  X      0.00647     0.03268
             68  N  3  Y      0.00647     0.03268
             69  N  3  Z     -0.02871     0.03710
             70  N  3 XX     -0.01830     0.03199
             71  N  3 YY      0.00000     0.03199
             72  N  3 ZZ      0.00000     0.10594
             73  N  3 XY     -0.02484     0.00000
             74  N  3 XZ     -0.02484     0.04860
             75  N  3 YZ      0.00000     0.04860

          ----- MULLIKEN ATOMIC OVERLAP POPULATIONS -----
          (OFF-DIAGONAL ELEMENTS NEED TO BE MULTIPLIED BY 2)

             1           2           3

    1    8.5835302
    2    0.1234990   7.2528614
    3   -0.0960933  -0.7313907   7.5715786

          TOTAL MULLIKEN AND LOWDIN ATOMIC POPULATIONS
       ATOM         MULL.POP.    CHARGE          LOW.POP.     CHARGE
    1 O             8.610936   -0.610936         7.948650    0.051350
    2 N             6.644970    0.355030         7.311102   -0.311102
    3 N             6.744095    0.255905         6.740248    0.259752

          MULLIKEN SPHERICAL HARMONIC POPULATIONS
       ATOM           S       P       D      F      G      H      I    TOTAL
    1 O             3.97    4.55    0.09   0.00   0.00   0.00   0.00    8.61
    2 N             3.50    2.94    0.21   0.00   0.00   0.00   0.00    6.64
    3 N             3.90    2.85    0.00   0.00   0.00   0.00   0.00    6.74

          -------------------------------
          BOND ORDER AND VALENCE ANALYSIS     BOND ORDER THRESHOLD=0.050
          -------------------------------

                   BOND                       BOND                       BOND
  ATOM PAIR DIST  ORDER      ATOM PAIR DIST  ORDER      ATOM PAIR DIST  ORDER
    1   2  1.175  1.392        1   3  2.267  0.097        2   3  1.092  1.861

                       TOTAL       BONDED        FREE
      ATOM            VALENCE     VALENCE     VALENCE
    1 O                 1.489       1.489       0.000
    2 N                 3.254       3.254      -0.000
    3 N                 1.958       1.958       0.000

          ---------------------
          ELECTROSTATIC MOMENTS
          ---------------------

 POINT   1           X           Y           Z (BOHR)    CHARGE
                -0.000000   -0.000000    0.014393       -0.00 (A.U.)
         DX          DY          DZ         /D/  (DEBYE)
    -0.000000    0.000000    0.699049    0.699049
 ...... END OF PROPERTY EVALUATION ......
 CPU     0: STEP CPU TIME=     0.01 TOTAL CPU TIME=          2.7 (      0.0 MIN)
 TOTAL WALL CLOCK TIME=          3.7 SECONDS, CPU UTILIZATION IS    71.58%
  $VIB   
          IVIB=   0 IATOM=   0 ICOORD=   0 E=     -183.7132608569
  0.000000000E+00 0.000000000E+00 3.892977555E-06 0.000000000E+00 0.000000000E+00
 -4.164008451E-06 0.000000000E+00 0.000000000E+00 2.710308262E-07
 -2.482555021E-29 2.514445746E-30 6.990487524E-01
 ......END OF GEOMETRY SEARCH......
 CPU     0: STEP CPU TIME=     0.01 TOTAL CPU TIME=          2.7 (      0.0 MIN)
 TOTAL WALL CLOCK TIME=          3.7 SECONDS, CPU UTILIZATION IS    71.85%
               994844  WORDS OF DYNAMIC MEMORY USED
 EXECUTION OF GAMESS TERMINATED NORMALLY Tue Aug 18 14:41:58 2020
 DDI: 263640 bytes (0.3 MB / 0 MWords) used by master data server.

 ----------------------------------------
 CPU timing information for all processes
 ========================================
 0: 2.530 + 0.156 = 2.686
 1: 2.547 + 0.97 = 2.645
 2: 2.576 + 0.48 = 2.624
 3: 2.549 + 0.205 = 2.755
 4: 2.582 + 0.80 = 2.663
 5: 2.593 + 0.127 = 2.721
 6: 2.601 + 0.76 = 2.678
 7: 2.551 + 0.129 = 2.680
 8: 2.578 + 0.97 = 2.676
 9: 2.517 + 0.48 = 2.565
 10: 2.528 + 0.109 = 2.637
 11: 2.558 + 0.66 = 2.624
 12: 2.577 + 0.89 = 2.667
 13: 2.542 + 0.40 = 2.582
 ----------------------------------------
 ddikick.x: exited gracefully.
----- accounting info -----
Files used on the master node paul-VirtualBox were:
-rw-rw-r-- 1 paul paul  272360 Aug 18 14:41 /tmp/N2O_aug-cc-pVDZ_geomOpt.dat
-rwxrwx--- 1 paul paul     402 Aug 18 14:41 /tmp/N2O_aug-cc-pVDZ_geomOpt.F05*
-rw-rw-r-- 1 paul paul 1832320 Aug 18 14:41 /tmp/N2O_aug-cc-pVDZ_geomOpt.F10
Tue 18 Aug 2020 02:42:01 PM EDT
0.0u 0.0s 0:06.81 0.7% 0+0k 0+16io 0pf+0w
