[Molden Format]
[Atoms] Angs
Xe    1   54         0.000000            0.000000            0.000000
[GTO]
  1 0
 s    8 1.00
  7.9264196453D+06  9.3250001200D-04
  8.6407597076D+05  3.6912000490D-03
  1.4516840283D+05  1.1993400158D-02
  3.1455771430D+04  3.6213100478D-02
  8.1820367286D+03  1.0437550138D-01
  2.4661478728D+03  2.5902390342D-01
  8.3259279150D+02  4.5041760594D-01
  2.9556573310D+02  3.1178040411D-01
 s    4 1.00
  2.0522142694D+03 -2.0942800522D-02
  5.7305894380D+02 -1.0070480251D-01
  9.0947468600D+01  5.3172291325D-01
  3.8474636300D+01  5.4861611367D-01
 s    3 1.00
  6.4216887300D+01 -2.6474460434D-01
  1.1489590500D+01  8.4803221392D-01
  5.2900101000D+00  2.9961740492D-01
 s    3 1.00
  1.0121702800D+01 -3.4980660889D-01
  2.3846078000D+00  8.3841382130D-01
  1.1276456000D+00  3.7360240949D-01
 s    2 1.00
  1.8114125000D+00 -4.0565067831D-01
  3.3396600000D-01  1.1981770359D+00
 s    1 1.00
  4.8232400000D-01  1.0000000000D+00
 s    1 1.00
  1.3111210000D-01  1.0000000000D+00
 s    1 1.00
  4.3704000000D-02  1.0000000000D+00
 p    7 1.00
  4.2041734440D+04  9.5650008200D-04
  7.0854144119D+03  5.6664004860D-03
  1.8536909887D+03  2.8179902416D-02
  6.1378713330D+02  1.1090050951D-01
  2.3459466660D+02  2.9868942561D-01
  9.6381058300D+01  4.7243224050D-01
  4.0042616000D+01  2.6688222288D-01
 p    4 1.00
  1.7138644030D+02 -1.9334999863D-02
  2.7099261400D+01  3.0304699785D-01
  1.2897736500D+01  5.4550699613D-01
  6.0391064000D+00  2.3215229836D-01
 p    3 1.00
  3.8149195000D+00  4.5168502593D-01
  1.7930118000D+00  5.0182252881D-01
  8.1502070000D-01  1.1626170668D-01
 p    1 1.00
  4.9263630000D-01  1.0000000000D+00
 p    1 1.00
  2.0512190000D-01  1.0000000000D+00
 p    1 1.00
  8.1926200000D-02  1.0000000000D+00
 p    1 1.00
  2.7308700000D-02  1.0000000000D+00
 d    7 1.00
  1.3708623597D+03  1.6094000950D-03
  3.8862443300D+02  1.3549500800D-02
  1.4540725370D+02  6.5820703888D-02
  6.1766237700D+01  2.0336821201D-01
  2.7983440500D+01  3.8330802265D-01
  1.2919937600D+01  4.0867832414D-01
  5.7290376000D+00  1.5181620897D-01
 d    4 1.00
  9.0869409000D+00  1.1636549848D-01
  3.8408478000D+00  4.2572369443D-01
  1.6377205000D+00  4.7358759380D-01
  6.4354730000D-01  1.6377129786D-01
 d    1 1.00
  4.9387900000D-01  1.0000000000D+00
 d    1 1.00
  2.1611000000D-01  1.0000000000D+00
 d    1 1.00
  7.2036700000D-02  1.0000000000D+00
 f    2 1.00
  4.2116200000D+00  7.3700003183D-02
  4.6906800000D-01  9.8987794276D-01
 f    1 1.00
  1.5637460000D-01  1.0000000000D+00


[MO]
 Ene= -1276.1157
 Spin= Alpha
 Occup=   2.000000
   1    0.995222
   2    0.014513
   3   -0.002682
   4    0.004154
   5    0.004934
   6   -0.006176
   7   -0.001476
   8    0.000334
   9   -0.000000
  10   -0.000000
  11   -0.000000
  12   -0.000000
  13   -0.000000
  14   -0.000000
  15   -0.000000
  16   -0.000000
  17   -0.000000
  18   -0.000000
  19   -0.000000
  20   -0.000000
  21   -0.000000
  22   -0.000000
  23   -0.000000
  24   -0.000000
  25   -0.000000
  26   -0.000000
  27   -0.000000
  28   -0.000000
  29   -0.000000
  30   -0.000000
  31   -0.000000
  32   -0.000000
  33   -0.000000
  34   -0.000000
  35   -0.000000
  36   -0.000000
  37   -0.000000
  38   -0.000000
  39   -0.000000
  40   -0.000000
  41   -0.000000
  42   -0.000000
  43   -0.000000
  44   -0.000000
  45   -0.000000
  46   -0.000000
  47   -0.000000
  48   -0.000000
  49   -0.000000
  50   -0.000000
  51   -0.000000
  52   -0.000000
  53   -0.000000
  54   -0.000000
  55   -0.000000
  56   -0.000000
  57   -0.000000
  58   -0.000000
  59   -0.000000
  60   -0.000000
  61   -0.000000
  62   -0.000000
  63   -0.000000
  64   -0.000000
  65   -0.000000
  66   -0.000000
  67   -0.000000
  68   -0.000000
  69   -0.000000
  70   -0.000000
  71   -0.000000
  72   -0.000000
  73   -0.000000
  74   -0.000000
  75   -0.000000
  76   -0.000000
  77   -0.000000
  78   -0.000000
  79   -0.000000
 Ene=  -202.3421
 Spin= Alpha
 Occup=   2.000000
   1   -0.364485
   2    1.047805
   3    0.025320
   4   -0.013171
   5   -0.013976
   6    0.017729
   7    0.004156
   8   -0.000942
   9   -0.000000
  10   -0.000000
  11   -0.000000
  12   -0.000000
  13   -0.000000
  14   -0.000000
  15   -0.000000
  16   -0.000000
  17   -0.000000
  18   -0.000000
  19   -0.000000
  20   -0.000000
  21   -0.000000
  22   -0.000000
  23   -0.000000
  24   -0.000000
  25   -0.000000
  26   -0.000000
  27   -0.000000
  28   -0.000000
  29   -0.000000
  30   -0.000000
  31   -0.000000
  32   -0.000000
  33   -0.000000
  34   -0.000000
  35   -0.000000
  36   -0.000000
  37   -0.000000
  38   -0.000000
  39   -0.000000
  40   -0.000000
  41   -0.000000
  42   -0.000000
  43   -0.000000
  44   -0.000000
  45   -0.000000
  46   -0.000000
  47   -0.000000
  48   -0.000000
  49   -0.000000
  50   -0.000000
  51   -0.000000
  52   -0.000000
  53   -0.000000
  54   -0.000000
  55   -0.000000
  56   -0.000000
  57   -0.000000
  58   -0.000000
  59   -0.000000
  60   -0.000000
  61   -0.000000
  62   -0.000000
  63   -0.000000
  64   -0.000000
  65   -0.000000
  66   -0.000000
  67   -0.000000
  68   -0.000000
  69   -0.000000
  70   -0.000000
  71   -0.000000
  72   -0.000000
  73   -0.000000
  74   -0.000000
  75   -0.000000
  76   -0.000000
  77   -0.000000
  78   -0.000000
  79   -0.000000
 Ene=  -181.4438
 Spin= Alpha
 Occup=   2.000000
   1    0.000000
   2    0.000000
   3    0.000000
   4    0.000000
   5    0.000000
   6    0.000000
   7    0.000000
   8    0.000000
   9    0.000000
  10    0.000000
  11    0.991680
  12    0.000000
  13    0.000000
  14    0.019575
  15    0.000000
  16    0.000000
  17   -0.003595
  18    0.000000
  19    0.000000
  20    0.002076
  21    0.000000
  22    0.000000
  23   -0.001485
  24    0.000000
  25    0.000000
  26    0.000694
  27    0.000000
  28    0.000000
  29   -0.000193
  30    0.000000
  31    0.000000
  32    0.000000
  33    0.000000
  34    0.000000
  35    0.000000
  36    0.000000
  37    0.000000
  38    0.000000
  39    0.000000
  40    0.000000
  41    0.000000
  42    0.000000
  43    0.000000
  44    0.000000
  45    0.000000
  46    0.000000
  47    0.000000
  48    0.000000
  49    0.000000
  50    0.000000
  51    0.000000
  52    0.000000
  53    0.000000
  54    0.000000
  55    0.000000
  56    0.000000
  57    0.000000
  58    0.000000
  59    0.000000
  60    0.000000
  61    0.000000
  62    0.000000
  63    0.000000
  64    0.000000
  65    0.000000
  66    0.000000
  67    0.000000
  68    0.000000
  69    0.000000
  70    0.000000
  71    0.000000
  72    0.000000
  73    0.000000
  74    0.000000
  75    0.000000
  76    0.000000
  77    0.000000
  78    0.000000
  79    0.000000
 Ene=  -181.4438
 Spin= Alpha
 Occup=   2.000000
   1    0.000000
   2    0.000000
   3    0.000000
   4    0.000000
   5    0.000000
   6    0.000000
   7    0.000000
   8    0.000000
   9    0.991680
  10    0.000000
  11    0.000000
  12    0.019575
  13    0.000000
  14    0.000000
  15   -0.003595
  16    0.000000
  17    0.000000
  18    0.002076
  19    0.000000
  20    0.000000
  21   -0.001485
  22    0.000000
  23    0.000000
  24    0.000694
  25    0.000000
  26    0.000000
  27   -0.000193
  28    0.000000
  29    0.000000
  30    0.000000
  31    0.000000
  32    0.000000
  33    0.000000
  34    0.000000
  35    0.000000
  36    0.000000
  37    0.000000
  38    0.000000
  39    0.000000
  40    0.000000
  41    0.000000
  42    0.000000
  43    0.000000
  44    0.000000
  45    0.000000
  46    0.000000
  47    0.000000
  48    0.000000
  49    0.000000
  50    0.000000
  51    0.000000
  52    0.000000
  53    0.000000
  54    0.000000
  55    0.000000
  56    0.000000
  57    0.000000
  58    0.000000
  59    0.000000
  60    0.000000
  61    0.000000
  62    0.000000
  63    0.000000
  64    0.000000
  65    0.000000
  66    0.000000
  67    0.000000
  68    0.000000
  69    0.000000
  70    0.000000
  71    0.000000
  72    0.000000
  73    0.000000
  74    0.000000
  75    0.000000
  76    0.000000
  77    0.000000
  78    0.000000
  79    0.000000
 Ene=  -181.4438
 Spin= Alpha
 Occup=   2.000000
   1    0.000000
   2    0.000000
   3    0.000000
   4    0.000000
   5    0.000000
   6    0.000000
   7    0.000000
   8    0.000000
   9    0.000000
  10    0.991680
  11    0.000000
  12    0.000000
  13    0.019575
  14    0.000000
  15    0.000000
  16   -0.003595
  17    0.000000
  18    0.000000
  19    0.002076
  20    0.000000
  21    0.000000
  22   -0.001485
  23    0.000000
  24    0.000000
  25    0.000694
  26    0.000000
  27    0.000000
  28   -0.000193
  29    0.000000
  30    0.000000
  31    0.000000
  32    0.000000
  33    0.000000
  34    0.000000
  35    0.000000
  36    0.000000
  37    0.000000
  38    0.000000
  39    0.000000
  40    0.000000
  41    0.000000
  42    0.000000
  43    0.000000
  44    0.000000
  45    0.000000
  46    0.000000
  47    0.000000
  48    0.000000
  49    0.000000
  50    0.000000
  51    0.000000
  52    0.000000
  53    0.000000
  54    0.000000
  55    0.000000
  56    0.000000
  57    0.000000
  58    0.000000
  59    0.000000
  60    0.000000
  61    0.000000
  62    0.000000
  63    0.000000
  64    0.000000
  65    0.000000
  66    0.000000
  67    0.000000
  68    0.000000
  69    0.000000
  70    0.000000
  71    0.000000
  72    0.000000
  73    0.000000
  74    0.000000
  75    0.000000
  76    0.000000
  77    0.000000
  78    0.000000
  79    0.000000
 Ene=   -42.9875
 Spin= Alpha
 Occup=   2.000000
   1    0.163165
   2   -0.570676
   3    1.122993
   4    0.006029
   5    0.000461
   6   -0.000720
   7   -0.000230
   8    0.000058
   9    0.000000
  10    0.000000
  11    0.000000
  12    0.000000
  13    0.000000
  14    0.000000
  15    0.000000
  16    0.000000
  17    0.000000
  18    0.000000
  19    0.000000
  20    0.000000
  21    0.000000
  22    0.000000
  23    0.000000
  24    0.000000
  25    0.000000
  26    0.000000
  27    0.000000
  28    0.000000
  29    0.000000
  30   -0.000000
  31   -0.000000
  32    0.000000
  33    0.000000
  34    0.000000
  35    0.000000
  36    0.000000
  37    0.000000
  38   -0.000000
  39    0.000000
  40    0.000000
  41    0.000000
  42    0.000000
  43    0.000000
  44    0.000000
  45    0.000000
  46    0.000000
  47    0.000000
  48    0.000000
  49    0.000000
  50    0.000000
  51    0.000000
  52    0.000000
  53    0.000000
  54    0.000000
  55    0.000000
  56    0.000000
  57    0.000000
  58    0.000000
  59    0.000000
  60    0.000000
  61    0.000000
  62    0.000000
  63    0.000000
  64    0.000000
  65    0.000000
  66    0.000000
  67    0.000000
  68    0.000000
  69    0.000000
  70    0.000000
  71    0.000000
  72    0.000000
  73    0.000000
  74    0.000000
  75    0.000000
  76    0.000000
  77    0.000000
  78    0.000000
  79    0.000000
 Ene=   -36.0598
 Spin= Alpha
 Occup=   2.000000
   1    0.000000
   2    0.000000
   3    0.000000
   4    0.000000
   5    0.000000
   6    0.000000
   7    0.000000
   8    0.000000
   9    0.000000
  10    0.000000
  11   -0.493075
  12    0.000000
  13    0.000000
  14    1.101851
  15    0.000000
  16    0.000000
  17    0.011835
  18    0.000000
  19    0.000000
  20   -0.001535
  21    0.000000
  22    0.000000
  23    0.000569
  24    0.000000
  25    0.000000
  26   -0.000213
  27    0.000000
  28    0.000000
  29    0.000054
  30    0.000000
  31    0.000000
  32    0.000000
  33    0.000000
  34    0.000000
  35    0.000000
  36    0.000000
  37    0.000000
  38    0.000000
  39    0.000000
  40    0.000000
  41    0.000000
  42    0.000000
  43    0.000000
  44    0.000000
  45    0.000000
  46    0.000000
  47    0.000000
  48    0.000000
  49    0.000000
  50    0.000000
  51    0.000000
  52    0.000000
  53    0.000000
  54    0.000000
  55    0.000000
  56    0.000000
  57    0.000000
  58    0.000000
  59    0.000000
  60    0.000000
  61    0.000000
  62    0.000000
  63    0.000000
  64    0.000000
  65    0.000000
  66    0.000000
  67    0.000000
  68    0.000000
  69    0.000000
  70    0.000000
  71    0.000000
  72    0.000000
  73    0.000000
  74    0.000000
  75    0.000000
  76    0.000000
  77    0.000000
  78    0.000000
  79    0.000000
 Ene=   -36.0598
 Spin= Alpha
 Occup=   2.000000
   1   -0.000000
   2   -0.000000
   3   -0.000000
   4   -0.000000
   5   -0.000000
   6   -0.000000
   7   -0.000000
   8   -0.000000
   9   -0.493075
  10   -0.000000
  11   -0.000000
  12    1.101851
  13   -0.000000
  14   -0.000000
  15    0.011835
  16   -0.000000
  17   -0.000000
  18   -0.001535
  19   -0.000000
  20   -0.000000
  21    0.000569
  22   -0.000000
  23   -0.000000
  24   -0.000213
  25   -0.000000
  26   -0.000000
  27    0.000054
  28   -0.000000
  29   -0.000000
  30   -0.000000
  31   -0.000000
  32   -0.000000
  33   -0.000000
  34   -0.000000
  35   -0.000000
  36   -0.000000
  37   -0.000000
  38   -0.000000
  39   -0.000000
  40   -0.000000
  41   -0.000000
  42   -0.000000
  43   -0.000000
  44   -0.000000
  45   -0.000000
  46   -0.000000
  47   -0.000000
  48   -0.000000
  49   -0.000000
  50   -0.000000
  51   -0.000000
  52   -0.000000
  53   -0.000000
  54   -0.000000
  55   -0.000000
  56   -0.000000
  57   -0.000000
  58   -0.000000
  59   -0.000000
  60   -0.000000
  61   -0.000000
  62   -0.000000
  63   -0.000000
  64   -0.000000
  65   -0.000000
  66   -0.000000
  67   -0.000000
  68   -0.000000
  69   -0.000000
  70   -0.000000
  71   -0.000000
  72   -0.000000
  73   -0.000000
  74   -0.000000
  75   -0.000000
  76   -0.000000
  77   -0.000000
  78   -0.000000
  79   -0.000000
 Ene=   -36.0598
 Spin= Alpha
 Occup=   2.000000
   1   -0.000000
   2   -0.000000
   3   -0.000000
   4   -0.000000
   5   -0.000000
   6   -0.000000
   7   -0.000000
   8   -0.000000
   9   -0.000000
  10   -0.493075
  11   -0.000000
  12   -0.000000
  13    1.101851
  14   -0.000000
  15   -0.000000
  16    0.011835
  17   -0.000000
  18   -0.000000
  19   -0.001535
  20   -0.000000
  21   -0.000000
  22    0.000569
  23   -0.000000
  24   -0.000000
  25   -0.000213
  26   -0.000000
  27   -0.000000
  28    0.000054
  29   -0.000000
  30   -0.000000
  31   -0.000000
  32   -0.000000
  33   -0.000000
  34   -0.000000
  35   -0.000000
  36   -0.000000
  37   -0.000000
  38   -0.000000
  39   -0.000000
  40   -0.000000
  41   -0.000000
  42   -0.000000
  43   -0.000000
  44   -0.000000
  45   -0.000000
  46   -0.000000
  47   -0.000000
  48   -0.000000
  49   -0.000000
  50   -0.000000
  51   -0.000000
  52   -0.000000
  53   -0.000000
  54   -0.000000
  55   -0.000000
  56   -0.000000
  57   -0.000000
  58   -0.000000
  59   -0.000000
  60   -0.000000
  61   -0.000000
  62   -0.000000
  63   -0.000000
  64   -0.000000
  65   -0.000000
  66   -0.000000
  67   -0.000000
  68   -0.000000
  69   -0.000000
  70   -0.000000
  71   -0.000000
  72   -0.000000
  73   -0.000000
  74   -0.000000
  75   -0.000000
  76   -0.000000
  77   -0.000000
  78   -0.000000
  79   -0.000000
 Ene=   -25.7320
 Spin= Alpha
 Occup=   2.000000
   1    0.000000
   2    0.000000
   3    0.000000
   4    0.000000
   5    0.000000
   6    0.000000
   7    0.000000
   8    0.000000
   9    0.000000
  10    0.000000
  11    0.000000
  12    0.000000
  13    0.000000
  14    0.000000
  15    0.000000
  16    0.000000
  17    0.000000
  18    0.000000
  19    0.000000
  20    0.000000
  21    0.000000
  22    0.000000
  23    0.000000
  24    0.000000
  25    0.000000
  26    0.000000
  27    0.000000
  28    0.000000
  29    0.000000
  30    0.000000
  31    0.000000
  32    0.000000
  33    0.000000
  34    0.000000
  35    0.997023
  36    0.000000
  37    0.000000
  38    0.000000
  39    0.000000
  40    0.000000
  41    0.007683
  42    0.000000
  43    0.000000
  44    0.000000
  45    0.000000
  46    0.000000
  47   -0.001373
  48    0.000000
  49    0.000000
  50    0.000000
  51    0.000000
  52    0.000000
  53    0.000197
  54    0.000000
  55    0.000000
  56    0.000000
  57    0.000000
  58    0.000000
  59   -0.000031
  60    0.000000
  61    0.000000
  62    0.000000
  63    0.000000
  64    0.000000
  65    0.000000
  66    0.000000
  67    0.000000
  68    0.000000
  69    0.000000
  70    0.000000
  71    0.000000
  72    0.000000
  73    0.000000
  74    0.000000
  75    0.000000
  76    0.000000
  77    0.000000
  78    0.000000
  79    0.000000
 Ene=   -25.7320
 Spin= Alpha
 Occup=   2.000000
   1   -0.000000
   2   -0.000000
   3   -0.000000
   4   -0.000000
   5   -0.000000
   6   -0.000000
   7   -0.000000
   8   -0.000000
   9   -0.000000
  10   -0.000000
  11   -0.000000
  12   -0.000000
  13   -0.000000
  14   -0.000000
  15   -0.000000
  16   -0.000000
  17   -0.000000
  18   -0.000000
  19   -0.000000
  20   -0.000000
  21   -0.000000
  22   -0.000000
  23   -0.000000
  24   -0.000000
  25   -0.000000
  26   -0.000000
  27   -0.000000
  28   -0.000000
  29   -0.000000
  30   -0.000000
  31   -0.000000
  32   -0.000000
  33   -0.000000
  34    0.997023
  35   -0.000000
  36   -0.000000
  37   -0.000000
  38   -0.000000
  39   -0.000000
  40    0.007683
  41   -0.000000
  42   -0.000000
  43   -0.000000
  44   -0.000000
  45   -0.000000
  46   -0.001373
  47   -0.000000
  48   -0.000000
  49   -0.000000
  50   -0.000000
  51   -0.000000
  52    0.000197
  53   -0.000000
  54   -0.000000
  55   -0.000000
  56   -0.000000
  57   -0.000000
  58   -0.000031
  59   -0.000000
  60   -0.000000
  61   -0.000000
  62   -0.000000
  63   -0.000000
  64   -0.000000
  65   -0.000000
  66   -0.000000
  67   -0.000000
  68   -0.000000
  69   -0.000000
  70   -0.000000
  71   -0.000000
  72   -0.000000
  73   -0.000000
  74   -0.000000
  75   -0.000000
  76   -0.000000
  77   -0.000000
  78   -0.000000
  79   -0.000000
 Ene=   -25.7320
 Spin= Alpha
 Occup=   2.000000
   1   -0.000000
   2    0.000000
   3   -0.000000
   4   -0.000000
   5   -0.000000
   6    0.000000
   7    0.000000
   8   -0.000000
   9   -0.000000
  10   -0.000000
  11   -0.000000
  12   -0.000000
  13   -0.000000
  14   -0.000000
  15   -0.000000
  16   -0.000000
  17   -0.000000
  18   -0.000000
  19   -0.000000
  20   -0.000000
  21   -0.000000
  22   -0.000000
  23   -0.000000
  24   -0.000000
  25   -0.000000
  26   -0.000000
  27   -0.000000
  28   -0.000000
  29   -0.000000
  30   -0.498512
  31   -0.498512
  32    0.997023
  33   -0.000000
  34   -0.000000
  35   -0.000000
  36   -0.003842
  37   -0.003842
  38    0.007683
  39   -0.000000
  40   -0.000000
  41   -0.000000
  42    0.000686
  43    0.000686
  44   -0.001373
  45   -0.000000
  46   -0.000000
  47   -0.000000
  48   -0.000098
  49   -0.000098
  50    0.000197
  51   -0.000000
  52   -0.000000
  53   -0.000000
  54    0.000016
  55    0.000016
  56   -0.000031
  57   -0.000000
  58   -0.000000
  59   -0.000000
  60   -0.000000
  61   -0.000000
  62   -0.000000
  63   -0.000000
  64   -0.000000
  65   -0.000000
  66   -0.000000
  67   -0.000000
  68   -0.000000
  69   -0.000000
  70   -0.000000
  71   -0.000000
  72   -0.000000
  73   -0.000000
  74   -0.000000
  75   -0.000000
  76   -0.000000
  77   -0.000000
  78   -0.000000
  79   -0.000000
 Ene=   -25.7320
 Spin= Alpha
 Occup=   2.000000
   1    0.000000
   2    0.000000
   3    0.000000
   4    0.000000
   5    0.000000
   6    0.000000
   7    0.000000
   8    0.000000
   9    0.000000
  10    0.000000
  11    0.000000
  12    0.000000
  13    0.000000
  14    0.000000
  15    0.000000
  16    0.000000
  17    0.000000
  18    0.000000
  19    0.000000
  20    0.000000
  21    0.000000
  22    0.000000
  23    0.000000
  24    0.000000
  25    0.000000
  26    0.000000
  27    0.000000
  28    0.000000
  29    0.000000
  30    0.863448
  31   -0.863448
  32    0.000000
  33    0.000000
  34    0.000000
  35    0.000000
  36    0.006654
  37   -0.006654
  38    0.000000
  39    0.000000
  40    0.000000
  41    0.000000
  42   -0.001189
  43    0.001189
  44    0.000000
  45    0.000000
  46    0.000000
  47    0.000000
  48    0.000171
  49   -0.000171
  50    0.000000
  51    0.000000
  52    0.000000
  53    0.000000
  54   -0.000027
  55    0.000027
  56    0.000000
  57    0.000000
  58    0.000000
  59    0.000000
  60    0.000000
  61    0.000000
  62    0.000000
  63    0.000000
  64    0.000000
  65    0.000000
  66    0.000000
  67    0.000000
  68    0.000000
  69    0.000000
  70    0.000000
  71    0.000000
  72    0.000000
  73    0.000000
  74    0.000000
  75    0.000000
  76    0.000000
  77    0.000000
  78    0.000000
  79    0.000000
 Ene=   -25.7320
 Spin= Alpha
 Occup=   2.000000
   1    0.000000
   2    0.000000
   3    0.000000
   4    0.000000
   5    0.000000
   6    0.000000
   7    0.000000
   8    0.000000
   9    0.000000
  10    0.000000
  11    0.000000
  12    0.000000
  13    0.000000
  14    0.000000
  15    0.000000
  16    0.000000
  17    0.000000
  18    0.000000
  19    0.000000
  20    0.000000
  21    0.000000
  22    0.000000
  23    0.000000
  24    0.000000
  25    0.000000
  26    0.000000
  27    0.000000
  28    0.000000
  29    0.000000
  30    0.000000
  31    0.000000
  32    0.000000
  33    0.997023
  34    0.000000
  35    0.000000
  36    0.000000
  37    0.000000
  38    0.000000
  39    0.007683
  40    0.000000
  41    0.000000
  42    0.000000
  43    0.000000
  44    0.000000
  45   -0.001373
  46    0.000000
  47    0.000000
  48    0.000000
  49    0.000000
  50    0.000000
  51    0.000197
  52    0.000000
  53    0.000000
  54    0.000000
  55    0.000000
  56    0.000000
  57   -0.000031
  58    0.000000
  59    0.000000
  60    0.000000
  61    0.000000
  62    0.000000
  63    0.000000
  64    0.000000
  65    0.000000
  66    0.000000
  67    0.000000
  68    0.000000
  69    0.000000
  70    0.000000
  71    0.000000
  72    0.000000
  73    0.000000
  74    0.000000
  75    0.000000
  76    0.000000
  77    0.000000
  78    0.000000
  79    0.000000
 Ene=    -8.4247
 Spin= Alpha
 Occup=   2.000000
   1   -0.074485
   2    0.270229
   3   -0.704928
   4    1.179723
   5    0.009443
   6   -0.005049
   7   -0.000400
   8    0.000050
   9    0.000000
  10    0.000000
  11    0.000000
  12    0.000000
  13    0.000000
  14    0.000000
  15    0.000000
  16    0.000000
  17    0.000000
  18    0.000000
  19    0.000000
  20    0.000000
  21    0.000000
  22    0.000000
  23    0.000000
  24    0.000000
  25    0.000000
  26    0.000000
  27    0.000000
  28    0.000000
  29    0.000000
  30    0.000000
  31    0.000000
  32    0.000000
  33    0.000000
  34    0.000000
  35    0.000000
  36    0.000000
  37    0.000000
  38    0.000000
  39    0.000000
  40    0.000000
  41    0.000000
  42    0.000000
  43    0.000000
  44   -0.000000
  45    0.000000
  46    0.000000
  47    0.000000
  48    0.000000
  49    0.000000
  50    0.000000
  51    0.000000
  52    0.000000
  53    0.000000
  54    0.000000
  55    0.000000
  56    0.000000
  57    0.000000
  58    0.000000
  59    0.000000
  60    0.000000
  61    0.000000
  62    0.000000
  63    0.000000
  64    0.000000
  65    0.000000
  66    0.000000
  67    0.000000
  68    0.000000
  69    0.000000
  70    0.000000
  71    0.000000
  72    0.000000
  73    0.000000
  74    0.000000
  75    0.000000
  76    0.000000
  77    0.000000
  78    0.000000
  79    0.000000
 Ene=    -6.1307
 Spin= Alpha
 Occup=   2.000000
   1   -0.000000
   2   -0.000000
   3   -0.000000
   4   -0.000000
   5   -0.000000
   6   -0.000000
   7   -0.000000
   8   -0.000000
   9   -0.000000
  10   -0.000000
  11    0.219386
  12   -0.000000
  13   -0.000000
  14   -0.722866
  15   -0.000000
  16   -0.000000
  17    1.191650
  18   -0.000000
  19   -0.000000
  20    0.000572
  21   -0.000000
  22   -0.000000
  23    0.002080
  24   -0.000000
  25   -0.000000
  26   -0.000094
  27   -0.000000
  28   -0.000000
  29    0.000004
  30   -0.000000
  31   -0.000000
  32   -0.000000
  33   -0.000000
  34   -0.000000
  35   -0.000000
  36   -0.000000
  37   -0.000000
  38   -0.000000
  39   -0.000000
  40   -0.000000
  41   -0.000000
  42   -0.000000
  43   -0.000000
  44   -0.000000
  45   -0.000000
  46   -0.000000
  47   -0.000000
  48   -0.000000
  49   -0.000000
  50   -0.000000
  51   -0.000000
  52   -0.000000
  53   -0.000000
  54   -0.000000
  55   -0.000000
  56   -0.000000
  57   -0.000000
  58   -0.000000
  59   -0.000000
  60   -0.000000
  61   -0.000000
  62   -0.000000
  63   -0.000000
  64   -0.000000
  65   -0.000000
  66   -0.000000
  67   -0.000000
  68   -0.000000
  69   -0.000000
  70   -0.000000
  71   -0.000000
  72   -0.000000
  73   -0.000000
  74   -0.000000
  75   -0.000000
  76   -0.000000
  77   -0.000000
  78   -0.000000
  79   -0.000000
 Ene=    -6.1307
 Spin= Alpha
 Occup=   2.000000
   1   -0.000000
   2   -0.000000
   3   -0.000000
   4   -0.000000
   5   -0.000000
   6   -0.000000
   7   -0.000000
   8   -0.000000
   9    0.219386
  10   -0.000000
  11   -0.000000
  12   -0.722866
  13   -0.000000
  14   -0.000000
  15    1.191650
  16   -0.000000
  17   -0.000000
  18    0.000572
  19   -0.000000
  20   -0.000000
  21    0.002080
  22   -0.000000
  23   -0.000000
  24   -0.000094
  25   -0.000000
  26   -0.000000
  27    0.000004
  28   -0.000000
  29   -0.000000
  30   -0.000000
  31   -0.000000
  32   -0.000000
  33   -0.000000
  34   -0.000000
  35   -0.000000
  36   -0.000000
  37   -0.000000
  38   -0.000000
  39   -0.000000
  40   -0.000000
  41   -0.000000
  42   -0.000000
  43   -0.000000
  44   -0.000000
  45   -0.000000
  46   -0.000000
  47   -0.000000
  48   -0.000000
  49   -0.000000
  50   -0.000000
  51   -0.000000
  52   -0.000000
  53   -0.000000
  54   -0.000000
  55   -0.000000
  56   -0.000000
  57   -0.000000
  58   -0.000000
  59   -0.000000
  60   -0.000000
  61   -0.000000
  62   -0.000000
  63   -0.000000
  64   -0.000000
  65   -0.000000
  66   -0.000000
  67   -0.000000
  68   -0.000000
  69   -0.000000
  70   -0.000000
  71   -0.000000
  72   -0.000000
  73   -0.000000
  74   -0.000000
  75   -0.000000
  76   -0.000000
  77   -0.000000
  78   -0.000000
  79   -0.000000
 Ene=    -6.1307
 Spin= Alpha
 Occup=   2.000000
   1   -0.000000
   2   -0.000000
   3   -0.000000
   4   -0.000000
   5   -0.000000
   6   -0.000000
   7   -0.000000
   8   -0.000000
   9   -0.000000
  10    0.219386
  11   -0.000000
  12   -0.000000
  13   -0.722866
  14   -0.000000
  15   -0.000000
  16    1.191650
  17   -0.000000
  18   -0.000000
  19    0.000572
  20   -0.000000
  21   -0.000000
  22    0.002080
  23   -0.000000
  24   -0.000000
  25   -0.000094
  26   -0.000000
  27   -0.000000
  28    0.000004
  29   -0.000000
  30   -0.000000
  31   -0.000000
  32   -0.000000
  33   -0.000000
  34   -0.000000
  35   -0.000000
  36   -0.000000
  37   -0.000000
  38   -0.000000
  39   -0.000000
  40   -0.000000
  41   -0.000000
  42   -0.000000
  43   -0.000000
  44   -0.000000
  45   -0.000000
  46   -0.000000
  47   -0.000000
  48   -0.000000
  49   -0.000000
  50   -0.000000
  51   -0.000000
  52   -0.000000
  53   -0.000000
  54   -0.000000
  55   -0.000000
  56   -0.000000
  57   -0.000000
  58   -0.000000
  59   -0.000000
  60   -0.000000
  61   -0.000000
  62   -0.000000
  63   -0.000000
  64   -0.000000
  65   -0.000000
  66   -0.000000
  67   -0.000000
  68   -0.000000
  69   -0.000000
  70   -0.000000
  71   -0.000000
  72   -0.000000
  73   -0.000000
  74   -0.000000
  75   -0.000000
  76   -0.000000
  77   -0.000000
  78   -0.000000
  79   -0.000000
 Ene=    -2.6651
 Spin= Alpha
 Occup=   2.000000
   1   -0.000000
   2   -0.000000
   3    0.000000
   4    0.000000
   5    0.000000
   6   -0.000000
   7   -0.000000
   8   -0.000000
   9   -0.000000
  10   -0.000000
  11   -0.000000
  12   -0.000000
  13   -0.000000
  14   -0.000000
  15   -0.000000
  16   -0.000000
  17   -0.000000
  18   -0.000000
  19   -0.000000
  20   -0.000000
  21   -0.000000
  22   -0.000000
  23   -0.000000
  24   -0.000000
  25   -0.000000
  26   -0.000000
  27   -0.000000
  28   -0.000000
  29   -0.000000
  30    0.215539
  31    0.215539
  32   -0.431078
  33   -0.000000
  34   -0.000000
  35   -0.000000
  36   -0.543599
  37   -0.543599
  38    1.087198
  39   -0.000000
  40   -0.000000
  41   -0.000000
  42    0.002124
  43    0.002124
  44   -0.004249
  45   -0.000000
  46   -0.000000
  47   -0.000000
  48   -0.002981
  49   -0.002981
  50    0.005961
  51   -0.000000
  52   -0.000000
  53   -0.000000
  54   -0.000504
  55   -0.000504
  56    0.001007
  57   -0.000000
  58   -0.000000
  59   -0.000000
  60   -0.000000
  61   -0.000000
  62   -0.000000
  63   -0.000000
  64   -0.000000
  65   -0.000000
  66   -0.000000
  67   -0.000000
  68   -0.000000
  69   -0.000000
  70   -0.000000
  71   -0.000000
  72   -0.000000
  73   -0.000000
  74   -0.000000
  75   -0.000000
  76   -0.000000
  77   -0.000000
  78   -0.000000
  79   -0.000000
 Ene=    -2.6651
 Spin= Alpha
 Occup=   2.000000
   1    0.000000
   2    0.000000
   3    0.000000
   4    0.000000
   5    0.000000
   6    0.000000
   7    0.000000
   8    0.000000
   9    0.000000
  10    0.000000
  11    0.000000
  12    0.000000
  13    0.000000
  14    0.000000
  15    0.000000
  16    0.000000
  17    0.000000
  18    0.000000
  19    0.000000
  20    0.000000
  21    0.000000
  22    0.000000
  23    0.000000
  24    0.000000
  25    0.000000
  26    0.000000
  27    0.000000
  28    0.000000
  29    0.000000
  30    0.000000
  31    0.000000
  32    0.000000
  33    0.000000
  34    0.000000
  35   -0.431078
  36    0.000000
  37    0.000000
  38    0.000000
  39    0.000000
  40    0.000000
  41    1.087198
  42    0.000000
  43    0.000000
  44    0.000000
  45    0.000000
  46    0.000000
  47   -0.004249
  48    0.000000
  49    0.000000
  50    0.000000
  51    0.000000
  52    0.000000
  53    0.005961
  54    0.000000
  55    0.000000
  56    0.000000