----- GAMESS execution script 'rungms' -----
This job is running on host paul-VirtualBox
under operating system Linux at Mon 01 Feb 2021 11:39:19 AM EST
Available scratch disk space (Kbyte units) at beginning of the job is
Filesystem     1K-blocks     Used Available Use% Mounted on
/dev/sda5       20123636 17910600   1167740  94% /
GAMESS temporary binary files will be written to /tmp
GAMESS supplementary output files will be written to /tmp
Copying input file xe_SPKrATZP_rel.inp to your run's scratch directory...
cp xe_SPKrATZP_rel.inp /tmp/xe_SPKrATZP_rel.F05
unset echo
 
Assuming a single but multicore node.
 
/opt/gamess/ddikick.x /opt/gamess/gamess.00.x xe_SPKrATZP_rel -ddi 1 14 paul-VirtualBox:cpus=14 -scr /tmp

 Distributed Data Interface kickoff program.
 Initiating 14 compute processes on 1 nodes to run the following command:
 /opt/gamess/gamess.00.x xe_SPKrATZP_rel 

          ******************************************************
          *         GAMESS VERSION = 30 SEP 2018 (R3)         *
          *             FROM IOWA STATE UNIVERSITY             *
          * M.W.SCHMIDT, K.K.BALDRIDGE, J.A.BOATZ, S.T.ELBERT, *
          *   M.S.GORDON, J.H.JENSEN, S.KOSEKI, N.MATSUNAGA,   *
          *          K.A.NGUYEN, S.J.SU, T.L.WINDUS,           *
          *       TOGETHER WITH M.DUPUIS, J.A.MONTGOMERY       *
          *         J.COMPUT.CHEM.  14, 1347-1363(1993)        *
          **************** 64 BIT LINUX VERSION ****************

  SINCE 1993, STUDENTS AND POSTDOCS WORKING AT IOWA STATE UNIVERSITY
  AND ALSO IN THEIR VARIOUS JOBS AFTER LEAVING ISU HAVE MADE IMPORTANT
  CONTRIBUTIONS TO THE CODE:
     IVANA ADAMOVIC, CHRISTINE AIKENS, YURI ALEXEEV, POOJA ARORA,
     ANDREY ASADCHEV, ROB BELL, PRADIPTA BANDYOPADHYAY, JONATHAN BENTZ,
     BRETT BODE, KURT BRORSEN, CALEB CARLIN, GALINA CHABAN, WEI CHEN,
     CHEOL HO CHOI, PAUL DAY, ALBERT DEFUSCO, NUWAN DESILVA, TIM DUDLEY,
     DMITRI FEDOROV, ALEX FINDLATER, GRAHAM FLETCHER, MARK FREITAG,
     KURT GLAESEMANN, ANASTASIA GUNINA,
     DAN KEMP, GRANT MERRILL, NORIYUKI MINEZAWA, JONATHAN MULLIN,
     TAKESHI NAGATA, SEAN NEDD, HEATHER NETZLOFF, BOSILJKA NJEGIC, RYAN OLSON,
     MIKE PAK, BUU PHAM,
     SPENCER PRUITT, LUKE ROSKOP, JIM SHOEMAKER, LYUDMILA SLIPCHENKO,
     TONY SMITH, SAROM SOK LEANG, JIE SONG, TETSUYA TAKETSUGU, SIMON WEBB,
     PENG XU, SOOHAENG YOO, FEDERICO ZAHARIEV

  ADDITIONAL CODE HAS BEEN PROVIDED BY COLLABORATORS IN OTHER GROUPS:
     IOWA STATE UNIVERSITY:
          JOE IVANIC, AARON WEST, LAIMUTIS BYTAUTAS, KLAUS RUEDENBERG
     UNIVERSITY OF TOKYO: KIMIHIKO HIRAO, TAKAHITO NAKAJIMA,
          TAKAO TSUNEDA, MUNEAKI KAMIYA, SUSUMU YANAGISAWA,
          KIYOSHI YAGI, MAHITO CHIBA, SEIKEN TOKURA, NAOAKI KAWAKAMI
     UNIVERSITY OF AARHUS: FRANK JENSEN
     UNIVERSITY OF IOWA: VISVALDAS KAIRYS, HUI LI
     NATIONAL INST. OF STANDARDS AND TECHNOLOGY: WALT STEVENS, DAVID GARMER
     UNIVERSITY OF PISA: BENEDETTA MENNUCCI, JACOPO TOMASI
     UNIVERSITY OF MEMPHIS: HENRY KURTZ, PRAKASHAN KORAMBATH
     UNIVERSITY OF ALBERTA: TOBY ZENG, MARIUSZ KLOBUKOWSKI
     UNIVERSITY OF NEW ENGLAND: MARK SPACKMAN
     MIE UNIVERSITY: HIROAKI UMEDA
     NAT. INST. OF ADVANCED INDUSTRIAL SCIENCE AND TECHNOLOGY: KAZUO KITAURA
     MICHIGAN STATE UNIVERSITY:
          KAROL KOWALSKI, MARTA WLOCH, JEFFREY GOUR, JESSE LUTZ,
          WEI LI, JUN SHEN, J. EMILIANO DEUSTUA, PIOTR PIECUCH
     UNIVERSITY OF MINNESOTA:
          YINAN SHU
     UNIVERSITY OF SILESIA: MONIKA MUSIAL, STANISLAW KUCHARSKI
     FACULTES UNIVERSITAIRES NOTRE-DAME DE LA PAIX:
          OLIVIER QUINET, BENOIT CHAMPAGNE
     UNIVERSITY OF CALIFORNIA - SANTA BARBARA: BERNARD KIRTMAN
     INSTITUTE FOR MOLECULAR SCIENCE:
          KAZUYA ISHIMURA, MICHIO KATOUDA, AND SHIGERU NAGASE
     UNIVERSITY OF NOTRE DAME: ANNA POMOGAEVA, DAN CHIPMAN
     KYUSHU UNIVERSITY:
          HARUYUKI NAKANO,
          FENG LONG GU, JACEK KORCHOWIEC, MARCIN MAKOWSKI, AND YURIKO AOKI,
          HIROTOSHI MORI AND EISAKU MIYOSHI
     PENNSYLVANIA STATE UNIVERSITY:
          TZVETELIN IORDANOV, CHET SWALINA, JONATHAN SKONE,
          SHARON HAMMES-SCHIFFER
     WASEDA UNIVERSITY:
          MASATO KOBAYASHI, TOMOKO AKAMA, TSUGUKI TOUMA,
          TAKESHI YOSHIKAWA, YASUHIRO IKABATA, JUNJI SEINO,
          YUYA NAKAJIMA, HIROMI NAKAI
     NANJING UNIVERSITY: SHUHUA LI
     UNIVERSITY OF NEBRASKA:
          PEIFENG SU, DEJUN SI, NANDUN THELLAMUREGE, YALI WANG, HUI LI
     UNIVERSITY OF ZURICH: ROBERTO PEVERATI, KIM BALDRIDGE
     N. COPERNICUS UNIVERSITY AND JACKSON STATE UNIVERSITY:
          MARIA BARYSZ
     UNIVERSITY OF COPENHAGEN: Jimmy Kromann, CASPER STEINMANN
     TOKYO INSTITUTE OF TECHNOLOGY: HIROYA NAKATA
     NAGOYA UNIVERSITY: YOSHIO NISHIMOTO, STEPHAN IRLE
     MOSCOW STATE UNIVERSITY: VLADIMIR MIRONOV


 PARALLEL VERSION RUNNING ON       14 PROCESSORS IN        1 NODES.

 EXECUTION OF GAMESS BEGUN Mon Feb  1 11:39:19 2021

            ECHO OF THE FIRST FEW INPUT CARDS -
 INPUT CARD>!   File created by MacMolPlt 7.3                                               
 INPUT CARD> $CONTRL SCFTYP=RHF RUNTYP=ENERGY MAXIT=30 MULT=1 ISPHER=1                      
 INPUT CARD>  RELWFN=LUT-IOTC $END                                                          
 INPUT CARD> $SYSTEM TIMLIM=525600 MEMORY=10730805 $END                                     
 INPUT CARD> $BASIS GBASIS=SPKrATZP $END                                                    
 INPUT CARD> $SCF DIRSCF=.TRUE. $END                                                        
 INPUT CARD> $STATPT OPTTOL=0.0001 NSTEP=20 $END                                            
 INPUT CARD> $DATA                                                                          
 INPUT CARD>Xe                                                                              
 INPUT CARD>DNH 8                                                                           
 INPUT CARD>                                                                                
 INPUT CARD>Xe    54.0    0.00000     0.00000     0.00000                                   
 INPUT CARD> $END                                                                           
   10730805 WORDS OF MEMORY AVAILABLE

     $BASIS REQUESTS READING THE "SPKRATZP" BASIS SET FROM AN EXTERNAL FILE


     RUN TITLE
     ---------
 Xe                                                                              

 THE POINT GROUP OF THE MOLECULE IS DNH     
 THE ORDER OF THE PRINCIPAL AXIS IS     8

 THE EXTERNAL BASIS SET FILE BEING READ IS
     "/opt/gamess/auxdata/BASES/SPKRATZP"

 ATOM      ATOMIC                      COORDINATES (BOHR)
           CHARGE         X                   Y                   Z
 XE         54.0     0.0000000000        0.0000000000        0.0000000000

          INTERNUCLEAR DISTANCES (ANGS.)
          ------------------------------

                1 XE    

   1 XE      0.0000000  

  * ... LESS THAN  3.000


     ATOMIC BASIS SET
     ----------------
 THE CONTRACTED PRIMITIVE FUNCTIONS HAVE BEEN UNNORMALIZED
 THE CONTRACTED BASIS FUNCTIONS ARE NOW NORMALIZED TO UNITY

  SHELL TYPE  PRIMITIVE        EXPONENT          CONTRACTION COEFFICIENT(S)

 XE        

      1   S       1       7926419.6452623    0.000932500012
      1   S       2        864075.9707620    0.003691200049
      1   S       3        145168.4028311    0.011993400158
      1   S       4         31455.7714304    0.036213100478
      1   S       5          8182.0367286    0.104375501377
      1   S       6          2466.1478728    0.259023903417
      1   S       7           832.5927915    0.450417605942
      1   S       8           295.5657331    0.311780404113

      2   S       9          2052.2142694   -0.020942800522
      2   S      10           573.0589438   -0.100704802510
      2   S      11            90.9474686    0.531722913253
      2   S      12            38.4746363    0.548616113674

      3   S      13            64.2168873   -0.264744604344
      3   S      14            11.4895905    0.848032213915
      3   S      15             5.2900101    0.299617404916

      4   S      16            10.1217028   -0.349806608888
      4   S      17             2.3846078    0.838413821303
      4   S      18             1.1276456    0.373602409493

      5   S      19             1.8114125   -0.405650678306
      5   S      20             0.3339660    1.198177035921

      6   S      21             0.4823240    1.000000000000

      7   S      22             0.1311121    1.000000000000

      8   S      23             0.0437040    1.000000000000

      9   P      24         42041.7344397    0.000956500082
      9   P      25          7085.4144119    0.005666400486
      9   P      26          1853.6909887    0.028179902416
      9   P      27           613.7871333    0.110900509508
      9   P      28           234.5946666    0.298689425607
      9   P      29            96.3810583    0.472432240503
      9   P      30            40.0426160    0.266882222880

     10   P      31           171.3864403   -0.019334999863
     10   P      32            27.0992614    0.303046997852
     10   P      33            12.8977365    0.545506996134
     10   P      34             6.0391064    0.232152298355

     11   P      35             3.8149195    0.451685025933
     11   P      36             1.7930118    0.501822528812
     11   P      37             0.8150207    0.116261706675

     12   P      38             0.4926363    1.000000000000

     13   P      39             0.2051219    1.000000000000

     14   P      40             0.0819262    1.000000000000

     15   P      41             0.0273087    1.000000000000

     16   D      42          1370.8623597    0.001609400095
     16   D      43           388.6244330    0.013549500800
     16   D      44           145.4072537    0.065820703888
     16   D      45            61.7662377    0.203368212014
     16   D      46            27.9834405    0.383308022645
     16   D      47            12.9199376    0.408678324143
     16   D      48             5.7290376    0.151816208969

     17   D      49             9.0869409    0.116365498477
     17   D      50             3.8408478    0.425723694428
     17   D      51             1.6377205    0.473587593801
     17   D      52             0.6435473    0.163771297856

     18   D      53             0.4938790    1.000000000000

     19   D      54             0.2161100    1.000000000000

     20   D      55             0.0720367    1.000000000000

     21   F      56             4.2116200    0.073700003183
     21   F      57             0.4690680    0.989877942757

     22   F      58             0.1563746    1.000000000000

 TOTAL NUMBER OF BASIS SET SHELLS             =   22
 NUMBER OF CARTESIAN GAUSSIAN BASIS FUNCTIONS =   79
 NOTE: THIS RUN WILL RESTRICT THE MO VARIATION SPACE TO SPHERICAL HARMONICS.
 THE NUMBER OF ORBITALS KEPT IN THE VARIATIONAL SPACE WILL BE PRINTED LATER.
 NUMBER OF ELECTRONS                          =   54
 CHARGE OF MOLECULE                           =    0
 SPIN MULTIPLICITY                            =    1
 NUMBER OF OCCUPIED ORBITALS (ALPHA)          =   27
 NUMBER OF OCCUPIED ORBITALS (BETA )          =   27
 TOTAL NUMBER OF ATOMS                        =    1
 THE NUCLEAR REPULSION ENERGY IS        0.0000000000

     ---------------------------------
     RELATIVISTIC WAVEFUNCTION OPTIONS
     ---------------------------------
     METHOD=LUT-IOTC NORDER= 2       NESOC=  0      MODEQR=      1
     NRATOM=  0      QMTTOL= 1.000E-10      QRTOL= 1.000E-10
     CLIGHT=137.03598950     TAU= 3.500E+00

 INTERNAL BASIS SET UNCONTRACTION FOR RESC/DK/IOTC/LUT-IOTC:
    58 SHELLS AND    191 AOS ARE CONSTRUCTED, COMPARED TO
    22 SHELLS AND     79 AOS IN THE CONTRACTED BASIS SET


 THIS MOLECULE IS RECOGNIZED AS BEING LINEAR,
 ORBITAL LZ DEGENERACY TOLERANCE ETOLLZ= 1.00E-06

     $CONTRL OPTIONS
     ---------------
 SCFTYP=RHF          RUNTYP=ENERGY       EXETYP=RUN     
 MPLEVL=       0     CITYP =NONE         CCTYP =NONE         VBTYP =NONE    
 DFTTYP=NONE         TDDFT =NONE    
 MULT  =       1     ICHARG=       0     NZVAR =       0     COORD =UNIQUE  
 PP    =NONE         RELWFN=LUT-IOTC     LOCAL =NONE         NUMGRD=       F
 ISPHER=       1     NOSYM =       0     MAXIT =      30     UNITS =ANGS    
 PLTORB=       F     MOLPLT=       F     AIMPAC=       F     FRIEND=        
 NPRINT=       7     IREST =       0     GEOM  =INPUT   
 NORMF =       0     NORMP =       0     ITOL  =      20     ICUT  =       9
 INTTYP=BEST         GRDTYP=BEST         QMTTOL= 1.0E-06

     $SYSTEM OPTIONS
     ---------------
  REPLICATED MEMORY=    10730805 WORDS (ON EVERY NODE).
 DISTRIBUTED MEMDDI=           0 MILLION WORDS IN AGGREGATE,
 MEMDDI DISTRIBUTED OVER  14 PROCESSORS IS           0 WORDS/PROCESSOR.
 TOTAL MEMORY REQUESTED ON EACH PROCESSOR=    10730805 WORDS.
 TIMLIM=      525600.00 MINUTES, OR     365.0 DAYS.
 PARALL= T  BALTYP=  DLB     KDIAG=    0  COREFL= F
 MXSEQ2=     300 MXSEQ3=     150  mem10=         0

          ----------------
          PROPERTIES INPUT
          ----------------

     MOMENTS            FIELD           POTENTIAL          DENSITY
 IEMOM =       1   IEFLD =       0   IEPOT =       0   IEDEN =       0
 WHERE =COMASS     WHERE =NUCLEI     WHERE =NUCLEI     WHERE =NUCLEI  
 OUTPUT=BOTH       OUTPUT=BOTH       OUTPUT=BOTH       OUTPUT=BOTH    
 IEMINT=       0   IEFINT=       0                     IEDINT=       0
                                                       MORB  =       0
          EXTRAPOLATION IN EFFECT
          DIIS IN EFFECT
 ORBITAL PRINTING OPTION: NPREO=     1    79     2     1

     -------------------------------
     INTEGRAL TRANSFORMATION OPTIONS
     -------------------------------
     NWORD  =            0
     CUTOFF = 1.0E-09     MPTRAN =       0
     DIRTRF =       T     AOINTS =DUP     

          ----------------------
          INTEGRAL INPUT OPTIONS
          ----------------------
 NOPK  =       1 NORDER=       0 SCHWRZ=       T

     ------------------------------------------
     THE POINT GROUP IS DNH, NAXIS= 8, ORDER=32
     ------------------------------------------

 -- VARIATIONAL SPACE WILL BE RESTRICTED TO PURE SPHERICAL HARMONICS ONLY --
 AFTER EXCLUDING CONTAMINANT COMBINATIONS FROM THE CARTESIAN GAUSSIAN BASIS
 SET, THE NUMBER OF SPHERICAL HARMONICS KEPT IN THE VARIATION SPACE IS   68

     DIMENSIONS OF THE SYMMETRY SUBSPACES ARE
 A1G =   13     A1U =    0     B1G =    0     B1U =    0     A2G =    0
 A2U =    9     B2G =    0     B2U =    0     E1G =    5     E1U =    9
 E2U =    2     E2G =    5     E3G =    0     E3U =    2

 ..... DONE SETTING UP THE RUN .....
 CPU     0: STEP CPU TIME=     0.07 TOTAL CPU TIME=          0.1 (      0.0 MIN)
 TOTAL WALL CLOCK TIME=          0.1 SECONDS, CPU UTILIZATION IS    87.50%

          ********************
          1 ELECTRON INTEGRALS
          ********************
 TIME TO DO ORDINARY INTEGRALS=      0.00

 ======================================================================
      INFINITE-ORDER TWO-COMPONENT (IOTC) ONE-ELECTRON HAMILTONIAN
      WITH LOCAL UNITARY TRANSFORMATION (LUT) SCHEME
                                            CODED BY YUYA NAKAJIMA
             J. SEINO, H. NAKAI, J. CHEM. PHYS. 136, 244102 (2012)
             J. SEINO, H. NAKAI, J. CHEM. PHYS. 137, 144101 (2012)
             J. SEINO, H. NAKAI, J. CHEM. PHYS. 139, 034109 (2013)
        J. SEINO, H. NAKAI, INT. J. QUANTUM. CHEM. 115, 253 (2015)
 ======================================================================

 LUT-IOTC TRANSFORMATION FOR ATOM:    1
 THE SMALLEST EIGENVALUE OF THE OVERLAP MATRIX IS   1.97E-12
 THERE ARE     2 OVERLAP MATRIX EIGENVALUES LESS THAN   1.00E-10
 THE NUMBER OF LINEARLY INDEPENDENT ORBITALS KEPT IS   189


     -------------------------------------
     LUT-IOTC TRANSFORMATION FOR ATOM-PAIR
     -------------------------------------

                1 XE    

   1 XE      0.0000000  

  * ... TRANSFORMED ATOM PAIR (LESS THAN   3.500 ANGS.)

 TIME TO DO  RELATIVISTIC INTS=      0.27
 ...... END OF ONE-ELECTRON INTEGRALS ......
 CPU     0: STEP CPU TIME=     0.27 TOTAL CPU TIME=          0.3 (      0.0 MIN)
 TOTAL WALL CLOCK TIME=          0.4 SECONDS, CPU UTILIZATION IS    77.27%

          -------------
          GUESS OPTIONS
          -------------
          GUESS =HUCKEL            NORB  =       0          NORDER=       0
          MIX   =       F          PRTMO =       F          PUNMO =       F
          TOLZ  = 1.0E-08          TOLE  = 1.0E-05
          SYMDEN=       F          PURIFY=       F

 INITIAL GUESS ORBITALS GENERATED BY HUCKEL   ROUTINE.
 HUCKEL GUESS REQUIRES     50588 WORDS.

 STATISTICS FOR GENERATION OF SYMMETRY ORBITAL -Q- MATRIX
 NUMBER OF CARTESIAN ATOMIC ORBITALS=         79
 NUMBER OF SPHERICAL CONTAMINANTS DROPPED=    11
 NUMBER OF LINEARLY DEPENDENT MOS DROPPED=     0
 TOTAL NUMBER OF MOS IN VARIATION SPACE=      68

 SYMMETRIES FOR INITIAL GUESS ORBITALS FOLLOW.   BOTH SET(S).
    27 ORBITALS ARE OCCUPIED (   23 CORE ORBITALS).
    24=A1G     25=E1U     26=E1U     27=A2U     28=A1G     29=A1G     30=A1G 
    31=A1G     32=A1G     33=A1G     34=A2U     35=A2U     36=A2U     37=A2U 
 ...... END OF INITIAL ORBITAL SELECTION ......
 CPU     0: STEP CPU TIME=     0.01 TOTAL CPU TIME=          0.3 (      0.0 MIN)
 TOTAL WALL CLOCK TIME=          0.4 SECONDS, CPU UTILIZATION IS    79.55%

                    ----------------------
                    AO INTEGRAL TECHNOLOGY
                    ----------------------
     S,P,L SHELL ROTATED AXIS INTEGRALS, REPROGRAMMED BY
        KAZUYA ISHIMURA (IMS) AND JOSE SIERRA (SYNSTAR).
     S,P,D,L SHELL ROTATED AXIS INTEGRALS PROGRAMMED BY
        KAZUYA ISHIMURA (INSTITUTE FOR MOLECULAR SCIENCE).
     S,P,D,F,G SHELL TO TOTAL QUARTET ANGULAR MOMENTUM SUM 5,
        ERIC PROGRAM BY GRAHAM FLETCHER (ELORET AND NASA ADVANCED
        SUPERCOMPUTING DIVISION, AMES RESEARCH CENTER).
     S,P,D,F,G,L SHELL GENERAL RYS QUADRATURE PROGRAMMED BY
        MICHEL DUPUIS (PACIFIC NORTHWEST NATIONAL LABORATORY).

          --------------------
          2 ELECTRON INTEGRALS
          --------------------

 DIRECT SCF METHOD SKIPS INTEGRAL STORAGE ON DISK.
 DIRECT TRANSFORMATION SKIPS AO INTEGRAL STORAGE ON DISK.
  ...... END OF TWO-ELECTRON INTEGRALS .....
 CPU     0: STEP CPU TIME=     0.01 TOTAL CPU TIME=          0.4 (      0.0 MIN)
 TOTAL WALL CLOCK TIME=          0.5 SECONDS, CPU UTILIZATION IS    80.00%

          --------------------------
                 RHF SCF CALCULATION
          --------------------------

     NUCLEAR ENERGY =         0.0000000000
     MAXIT =   30     NPUNCH=    2
     EXTRAP=T  DAMP=F  SHIFT=F  RSTRCT=F  DIIS=T  DEM=F  SOSCF=F
     DENSITY MATRIX CONV=  2.00E-05
     MEMORY REQUIRED FOR RHF ITERS=    100064 WORDS.

 DIRECT SCF CALCULATION, SCHWRZ=T   FDIFF=T,  DIRTHR=  0.00E+00 NITDIR=10
 SCHWARZ INEQUALITY OVERHEAD:      3160 INTEGRALS, T=        0.00

                                                                                   NONZERO     BLOCKS
 ITER EX DEM     TOTAL ENERGY        E CHANGE  DENSITY CHANGE    DIIS ERROR      INTEGRALS    SKIPPED
   1  0  0    -7443.0003643402 -7443.0003643402   1.629682173   3.162400835         518128       2787
          * * *   INITIATING DIIS PROCEDURE   * * *
   2  1  0    -7443.4202743923    -0.4199100521   0.040533848   0.045228410         521385       2812
   3  2  0    -7443.4236833176    -0.0034089253   0.042844150   0.019249135         515267       3120
   4  3  0    -7443.4240412744    -0.0003579568   0.002471746   0.002465451         513035       3247
   5  4  0    -7443.4240537501    -0.0000124758   0.000596899   0.000204210         507994       3799
   6  5  0    -7443.4240538839    -0.0000001337   0.000090690   0.000024290         487948       4551
   7  6  0    -7443.4240538851    -0.0000000012   0.000003258   0.000000530         462211       5743
   8  7  0    -7443.4240538844     0.0000000007   0.000000244   0.000000061         381345       9033

          -----------------
          DENSITY CONVERGED
          -----------------
     TIME TO FORM FOCK OPERATORS=       0.3 SECONDS (       0.0 SEC/ITER)
     FOCK TIME ON FIRST ITERATION=       0.0, LAST ITERATION=       0.0
     TIME TO SOLVE SCF EQUATIONS=       0.0 SECONDS (       0.0 SEC/ITER)

 FINAL RHF ENERGY IS    -7443.4240538844 AFTER   8 ITERATIONS

 LZ VALUE ANALYSIS FOR THE MOS
 ----------------------------------------
 MO     1 (    1) HAS LZ(WEIGHT)= 0.00(100.0%) 
 MO     2 (    2) HAS LZ(WEIGHT)= 0.00(100.0%) 
 MO     3 (    3) HAS LZ(WEIGHT)= 0.00(100.0%) 
 MO     4 (    3) HAS LZ(WEIGHT)=-1.00( 50.0%)  1.00( 50.0%) 
 MO     5 (    3) HAS LZ(WEIGHT)=-1.00( 50.0%)  1.00( 50.0%) 
 MO     6 (    4) HAS LZ(WEIGHT)= 0.00(100.0%) 
 MO     7 (    5) HAS LZ(WEIGHT)= 0.00(100.0%) 
 MO     8 (    5) HAS LZ(WEIGHT)=-1.00( 50.0%)  1.00( 50.0%) 
 MO     9 (    5) HAS LZ(WEIGHT)=-1.00( 50.0%)  1.00( 50.0%) 
 MO    10 (    6) HAS LZ(WEIGHT)=-1.00( 50.0%)  1.00( 50.0%) 
 MO    11 (    6) HAS LZ(WEIGHT)=-1.00( 50.0%)  1.00( 50.0%) 
 MO    12 (    6) HAS LZ(WEIGHT)= 0.00(100.0%) 
 MO    13 (    6) HAS LZ(WEIGHT)=-2.00( 50.0%)  2.00( 50.0%) 
 MO    14 (    6) HAS LZ(WEIGHT)=-2.00( 50.0%)  2.00( 50.0%) 
 MO    15 (    7) HAS LZ(WEIGHT)= 0.00(100.0%) 
 MO    16 (    8) HAS LZ(WEIGHT)= 0.00(100.0%) 
 MO    17 (    8) HAS LZ(WEIGHT)=-1.00( 50.0%)  1.00( 50.0%) 
 MO    18 (    8) HAS LZ(WEIGHT)=-1.00( 50.0%)  1.00( 50.0%) 
 MO    19 (    9) HAS LZ(WEIGHT)= 0.00(100.0%) 
 MO    20 (    9) HAS LZ(WEIGHT)=-1.00( 50.0%)  1.00( 50.0%) 
 MO    21 (    9) HAS LZ(WEIGHT)=-1.00( 50.0%)  1.00( 50.0%) 
 MO    22 (    9) HAS LZ(WEIGHT)=-2.00( 50.0%)  2.00( 50.0%) 
 MO    23 (    9) HAS LZ(WEIGHT)=-2.00( 50.0%)  2.00( 50.0%) 
 MO    24 (   10) HAS LZ(WEIGHT)= 0.00(100.0%) 
 MO    25 (   11) HAS LZ(WEIGHT)= 0.00(100.0%) 
 MO    26 (   11) HAS LZ(WEIGHT)=-1.00( 50.0%)  1.00( 50.0%) 
 MO    27 (   11) HAS LZ(WEIGHT)=-1.00( 50.0%)  1.00( 50.0%) 
 MO    28 (   12) HAS LZ(WEIGHT)= 0.00(100.0%) 
 MO    29 (   12) HAS LZ(WEIGHT)=-1.00( 50.0%)  1.00( 50.0%) 
 MO    30 (   12) HAS LZ(WEIGHT)=-1.00( 50.0%)  1.00( 50.0%) 
 MO    31 (   13) HAS LZ(WEIGHT)= 0.00(100.0%) 
 MO    32 (   14) HAS LZ(WEIGHT)= 0.00(100.0%) 
 MO    33 (   14) HAS LZ(WEIGHT)=-2.00( 50.0%)  2.00( 50.0%) 
 MO    34 (   14) HAS LZ(WEIGHT)=-2.00( 50.0%)  2.00( 50.0%) 
 MO    35 (   14) HAS LZ(WEIGHT)=-1.00( 50.0%)  1.00( 50.0%) 
 MO    36 (   14) HAS LZ(WEIGHT)=-1.00( 50.0%)  1.00( 50.0%) 
 MO    37 (   15) HAS LZ(WEIGHT)= 0.00(100.0%) 
 MO    38 (   15) HAS LZ(WEIGHT)=-1.00( 50.0%)  1.00( 50.0%) 
 MO    39 (   15) HAS LZ(WEIGHT)=-1.00( 50.0%)  1.00( 50.0%) 
 MO    40 (   16) HAS LZ(WEIGHT)= 0.00(100.0%) 
 MO    41 (   16) HAS LZ(WEIGHT)=-2.00( 50.0%)  2.00( 50.0%) 
 MO    42 (   16) HAS LZ(WEIGHT)=-2.00( 50.0%)  2.00( 50.0%) 
 MO    43 (   16) HAS LZ(WEIGHT)=-1.00( 50.0%)  1.00( 50.0%) 
 MO    44 (   16) HAS LZ(WEIGHT)=-1.00( 50.0%)  1.00( 50.0%) 
 MO    45 (   17) HAS LZ(WEIGHT)=-1.00( 50.0%)  1.00( 50.0%) 
 MO    46 (   17) HAS LZ(WEIGHT)=-1.00( 50.0%)  1.00( 50.0%) 
 MO    47 (   17) HAS LZ(WEIGHT)=-3.00( 50.0%)  3.00( 50.0%) 
 MO    48 (   17) HAS LZ(WEIGHT)=-3.00( 50.0%)  3.00( 50.0%) 
 MO    49 (   17) HAS LZ(WEIGHT)= 0.00(100.0%) 
 MO    50 (   17) HAS LZ(WEIGHT)=-2.00( 50.0%)  2.00( 50.0%) 
 MO    51 (   17) HAS LZ(WEIGHT)=-2.00( 50.0%)  2.00( 50.0%) 
 MO    52 (   18) HAS LZ(WEIGHT)= 0.00(100.0%) 
 MO    53 (   19) HAS LZ(WEIGHT)= 0.00(100.0%) 
 MO    54 (   19) HAS LZ(WEIGHT)=-3.00( 50.0%)  3.00( 50.0%) 
 MO    55 (   19) HAS LZ(WEIGHT)=-3.00( 50.0%)  3.00( 50.0%) 
 MO    56 (   19) HAS LZ(WEIGHT)=-1.00( 50.0%)  1.00( 50.0%) 
 MO    57 (   19) HAS LZ(WEIGHT)=-1.00( 50.0%)  1.00( 50.0%) 
 MO    58 (   19) HAS LZ(WEIGHT)=-2.00( 50.0%)  2.00( 50.0%) 
 MO    59 (   19) HAS LZ(WEIGHT)=-2.00( 50.0%)  2.00( 50.0%) 
 MO    60 (   20) HAS LZ(WEIGHT)= 0.00(100.0%) 
 MO    61 (   20) HAS LZ(WEIGHT)=-1.00( 50.0%)  1.00( 50.0%) 
 MO    62 (   20) HAS LZ(WEIGHT)=-1.00( 50.0%)  1.00( 50.0%) 
 MO    63 (   21) HAS LZ(WEIGHT)= 0.00(100.0%) 
 MO    64 (   21) HAS LZ(WEIGHT)=-2.00( 50.0%)  2.00( 50.0%) 
 MO    65 (   21) HAS LZ(WEIGHT)=-2.00( 50.0%)  2.00( 50.0%) 
 MO    66 (   21) HAS LZ(WEIGHT)=-1.00( 50.0%)  1.00( 50.0%) 
 MO    67 (   21) HAS LZ(WEIGHT)=-1.00( 50.0%)  1.00( 50.0%) 
 MO    68 (   22) HAS LZ(WEIGHT)= 0.00(100.0%) 

          ------------
          EIGENVECTORS
          ------------

                      1          2          3          4          5
                -1276.1157  -202.3421  -181.4438  -181.4438  -181.4438
                     A1G        A1G        A2U        E1U        E1U 
    1  XE 1  S    0.995222  -0.364485   0.000000   0.000000   0.000000
    2  XE 1  S    0.014513   1.047805   0.000000   0.000000   0.000000
    3  XE 1  S   -0.002682   0.025320   0.000000   0.000000   0.000000
    4  XE 1  S    0.004154  -0.013171   0.000000   0.000000   0.000000
    5  XE 1  S    0.004934  -0.013976   0.000000   0.000000   0.000000
    6  XE 1  S   -0.006176   0.017729   0.000000   0.000000   0.000000
    7  XE 1  S   -0.001476   0.004156   0.000000   0.000000   0.000000
    8  XE 1  S    0.000334  -0.000942   0.000000   0.000000   0.000000
    9  XE 1  X   -0.000000  -0.000000   0.000000   0.991680   0.000000
   10  XE 1  Y   -0.000000  -0.000000   0.000000   0.000000   0.991680
   11  XE 1  Z   -0.000000  -0.000000   0.991680   0.000000   0.000000
   12  XE 1  X   -0.000000  -0.000000   0.000000   0.019575   0.000000
   13  XE 1  Y   -0.000000  -0.000000   0.000000   0.000000   0.019575
   14  XE 1  Z   -0.000000  -0.000000   0.019575   0.000000   0.000000
   15  XE 1  X   -0.000000  -0.000000   0.000000  -0.003595   0.000000
   16  XE 1  Y   -0.000000  -0.000000   0.000000   0.000000  -0.003595
   17  XE 1  Z   -0.000000  -0.000000  -0.003595   0.000000   0.000000
   18  XE 1  X   -0.000000  -0.000000   0.000000   0.002076   0.000000
   19  XE 1  Y   -0.000000  -0.000000   0.000000   0.000000   0.002076
   20  XE 1  Z   -0.000000  -0.000000   0.002076   0.000000   0.000000
   21  XE 1  X   -0.000000  -0.000000   0.000000  -0.001485   0.000000
   22  XE 1  Y   -0.000000  -0.000000   0.000000   0.000000  -0.001485
   23  XE 1  Z   -0.000000  -0.000000  -0.001485   0.000000   0.000000
   24  XE 1  X   -0.000000  -0.000000   0.000000   0.000694   0.000000
   25  XE 1  Y   -0.000000  -0.000000   0.000000   0.000000   0.000694
   26  XE 1  Z   -0.000000  -0.000000   0.000694   0.000000   0.000000
   27  XE 1  X   -0.000000  -0.000000   0.000000  -0.000193   0.000000
   28  XE 1  Y   -0.000000  -0.000000   0.000000   0.000000  -0.000193
   29  XE 1  Z   -0.000000  -0.000000  -0.000193   0.000000   0.000000
   30  XE 1 XX   -0.000000  -0.000000   0.000000   0.000000   0.000000
   31  XE 1 YY   -0.000000  -0.000000   0.000000   0.000000   0.000000
   32  XE 1 ZZ   -0.000000  -0.000000   0.000000   0.000000   0.000000
   33  XE 1 XY   -0.000000  -0.000000   0.000000   0.000000   0.000000
   34  XE 1 XZ   -0.000000  -0.000000   0.000000   0.000000   0.000000
   35  XE 1 YZ   -0.000000  -0.000000   0.000000   0.000000   0.000000
   36  XE 1 XX   -0.000000  -0.000000   0.000000   0.000000   0.000000
   37  XE 1 YY   -0.000000  -0.000000   0.000000   0.000000   0.000000
   38  XE 1 ZZ   -0.000000  -0.000000   0.000000   0.000000   0.000000
   39  XE 1 XY   -0.000000  -0.000000   0.000000   0.000000   0.000000
   40  XE 1 XZ   -0.000000  -0.000000   0.000000   0.000000   0.000000
   41  XE 1 YZ   -0.000000  -0.000000   0.000000   0.000000   0.000000
   42  XE 1 XX   -0.000000  -0.000000   0.000000   0.000000   0.000000
   43  XE 1 YY   -0.000000  -0.000000   0.000000   0.000000   0.000000
   44  XE 1 ZZ   -0.000000  -0.000000   0.000000   0.000000   0.000000
   45  XE 1 XY   -0.000000  -0.000000   0.000000   0.000000   0.000000
   46  XE 1 XZ   -0.000000  -0.000000   0.000000   0.000000   0.000000
   47  XE 1 YZ   -0.000000  -0.000000   0.000000   0.000000   0.000000
   48  XE 1 XX   -0.000000  -0.000000   0.000000   0.000000   0.000000
   49  XE 1 YY   -0.000000  -0.000000   0.000000   0.000000   0.000000
   50  XE 1 ZZ   -0.000000  -0.000000   0.000000   0.000000   0.000000
   51  XE 1 XY   -0.000000  -0.000000   0.000000   0.000000   0.000000
   52  XE 1 XZ   -0.000000  -0.000000   0.000000   0.000000   0.000000
   53  XE 1 YZ   -0.000000  -0.000000   0.000000   0.000000   0.000000
   54  XE 1 XX   -0.000000  -0.000000   0.000000   0.000000   0.000000
   55  XE 1 YY   -0.000000  -0.000000   0.000000   0.000000   0.000000
   56  XE 1 ZZ   -0.000000  -0.000000   0.000000   0.000000   0.000000
   57  XE 1 XY   -0.000000  -0.000000   0.000000   0.000000   0.000000
   58  XE 1 XZ   -0.000000  -0.000000   0.000000   0.000000   0.000000
   59  XE 1 YZ   -0.000000  -0.000000   0.000000   0.000000   0.000000
   60  XE 1 XXX  -0.000000  -0.000000   0.000000   0.000000   0.000000
   61  XE 1 YYY  -0.000000  -0.000000   0.000000   0.000000   0.000000
   62  XE 1 ZZZ  -0.000000  -0.000000   0.000000   0.000000   0.000000
   63  XE 1 XXY  -0.000000  -0.000000   0.000000   0.000000   0.000000
   64  XE 1 XXZ  -0.000000  -0.000000   0.000000   0.000000   0.000000
   65  XE 1 YYX  -0.000000  -0.000000   0.000000   0.000000   0.000000
   66  XE 1 YYZ  -0.000000  -0.000000   0.000000   0.000000   0.000000
   67  XE 1 ZZX  -0.000000  -0.000000   0.000000   0.000000   0.000000
   68  XE 1 ZZY  -0.000000  -0.000000   0.000000   0.000000   0.000000
   69  XE 1 XYZ  -0.000000  -0.000000   0.000000   0.000000   0.000000
   70  XE 1 XXX  -0.000000  -0.000000   0.000000   0.000000   0.000000
   71  XE 1 YYY  -0.000000  -0.000000   0.000000   0.000000   0.000000
   72  XE 1 ZZZ  -0.000000  -0.000000   0.000000   0.000000   0.000000
   73  XE 1 XXY  -0.000000  -0.000000   0.000000   0.000000   0.000000
   74  XE 1 XXZ  -0.000000  -0.000000   0.000000   0.000000   0.000000
   75  XE 1 YYX  -0.000000  -0.000000   0.000000   0.000000   0.000000
   76  XE 1 YYZ  -0.000000  -0.000000   0.000000   0.000000   0.000000
   77  XE 1 ZZX  -0.000000  -0.000000   0.000000   0.000000   0.000000
   78  XE 1 ZZY  -0.000000  -0.000000   0.000000   0.000000   0.000000
   79  XE 1 XYZ  -0.000000  -0.000000   0.000000   0.000000   0.000000

                      6          7          8          9         10
                  -42.9875   -36.0598   -36.0598   -36.0598   -25.7320
                     A1G        A2U        E1U        E1U        E1G 
    1  XE 1  S    0.163165   0.000000  -0.000000  -0.000000   0.000000
    2  XE 1  S   -0.570676   0.000000  -0.000000  -0.000000   0.000000
    3  XE 1  S    1.122993   0.000000  -0.000000  -0.000000   0.000000
    4  XE 1  S    0.006029   0.000000  -0.000000  -0.000000   0.000000
    5  XE 1  S    0.000461   0.000000  -0.000000  -0.000000   0.000000
    6  XE 1  S   -0.000720   0.000000  -0.000000  -0.000000   0.000000
    7  XE 1  S   -0.000230   0.000000  -0.000000  -0.000000   0.000000
    8  XE 1  S    0.000058   0.000000  -0.000000  -0.000000   0.000000
    9  XE 1  X    0.000000   0.000000  -0.493075  -0.000000   0.000000
   10  XE 1  Y    0.000000   0.000000  -0.000000  -0.493075   0.000000
   11  XE 1  Z    0.000000  -0.493075  -0.000000  -0.000000   0.000000
   12  XE 1  X    0.000000   0.000000   1.101851  -0.000000   0.000000
   13  XE 1  Y    0.000000   0.000000  -0.000000   1.101851   0.000000
   14  XE 1  Z    0.000000   1.101851  -0.000000  -0.000000   0.000000
   15  XE 1  X    0.000000   0.000000   0.011835  -0.000000   0.000000
   16  XE 1  Y    0.000000   0.000000  -0.000000   0.011835   0.000000
   17  XE 1  Z    0.000000   0.011835  -0.000000  -0.000000   0.000000
   18  XE 1  X    0.000000   0.000000  -0.001535  -0.000000   0.000000
   19  XE 1  Y    0.000000   0.000000  -0.000000  -0.001535   0.000000
   20  XE 1  Z    0.000000  -0.001535  -0.000000  -0.000000   0.000000
   21  XE 1  X    0.000000   0.000000   0.000569  -0.000000   0.000000
   22  XE 1  Y    0.000000   0.000000  -0.000000   0.000569   0.000000
   23  XE 1  Z    0.000000   0.000569  -0.000000  -0.000000   0.000000
   24  XE 1  X    0.000000   0.000000  -0.000213  -0.000000   0.000000
   25  XE 1  Y    0.000000   0.000000  -0.000000  -0.000213   0.000000
   26  XE 1  Z    0.000000  -0.000213  -0.000000  -0.000000   0.000000
   27  XE 1  X    0.000000   0.000000   0.000054  -0.000000   0.000000
   28  XE 1  Y    0.000000   0.000000  -0.000000   0.000054   0.000000
   29  XE 1  Z    0.000000   0.000054  -0.000000  -0.000000   0.000000
   30  XE 1 XX   -0.000000   0.000000  -0.000000  -0.000000   0.000000
   31  XE 1 YY   -0.000000   0.000000  -0.000000  -0.000000   0.000000
   32  XE 1 ZZ    0.000000   0.000000  -0.000000  -0.000000   0.000000
   33  XE 1 XY    0.000000   0.000000  -0.000000  -0.000000   0.000000
   34  XE 1 XZ    0.000000   0.000000  -0.000000  -0.000000   0.000000
   35  XE 1 YZ    0.000000   0.000000  -0.000000  -0.000000   0.997023
   36  XE 1 XX    0.000000   0.000000  -0.000000  -0.000000   0.000000
   37  XE 1 YY    0.000000   0.000000  -0.000000  -0.000000   0.000000
   38  XE 1 ZZ   -0.000000   0.000000  -0.000000  -0.000000   0.000000
   39  XE 1 XY    0.000000   0.000000  -0.000000  -0.000000   0.000000
   40  XE 1 XZ    0.000000   0.000000  -0.000000  -0.000000   0.000000
   41  XE 1 YZ    0.000000   0.000000  -0.000000  -0.000000   0.007683
   42  XE 1 XX    0.000000   0.000000  -0.000000  -0.000000   0.000000
   43  XE 1 YY    0.000000   0.000000  -0.000000  -0.000000   0.000000
   44  XE 1 ZZ    0.000000   0.000000  -0.000000  -0.000000   0.000000
   45  XE 1 XY    0.000000   0.000000  -0.000000  -0.000000   0.000000
   46  XE 1 XZ    0.000000   0.000000  -0.000000  -0.000000   0.000000
   47  XE 1 YZ    0.000000   0.000000  -0.000000  -0.000000  -0.001373
   48  XE 1 XX    0.000000   0.000000  -0.000000  -0.000000   0.000000
   49  XE 1 YY    0.000000   0.000000  -0.000000  -0.000000   0.000000
   50  XE 1 ZZ    0.000000   0.000000  -0.000000  -0.000000   0.000000
   51  XE 1 XY    0.000000   0.000000  -0.000000  -0.000000   0.000000
   52  XE 1 XZ    0.000000   0.000000  -0.000000  -0.000000   0.000000
   53  XE 1 YZ    0.000000   0.000000  -0.000000  -0.000000   0.000197
   54  XE 1 XX    0.000000   0.000000  -0.000000  -0.000000   0.000000
   55  XE 1 YY    0.000000   0.000000  -0.000000  -0.000000   0.000000
   56  XE 1 ZZ    0.000000   0.000000  -0.000000  -0.000000   0.000000
   57  XE 1 XY    0.000000   0.000000  -0.000000  -0.000000   0.000000
   58  XE 1 XZ    0.000000   0.000000  -0.000000  -0.000000   0.000000
   59  XE 1 YZ    0.000000   0.000000  -0.000000  -0.000000  -0.000031
   60  XE 1 XXX   0.000000   0.000000  -0.000000  -0.000000   0.000000
   61  XE 1 YYY   0.000000   0.000000  -0.000000  -0.000000   0.000000
   62  XE 1 ZZZ   0.000000   0.000000  -0.000000  -0.000000   0.000000
   63  XE 1 XXY   0.000000   0.000000  -0.000000  -0.000000   0.000000
   64  XE 1 XXZ   0.000000   0.000000  -0.000000  -0.000000   0.000000
   65  XE 1 YYX   0.000000   0.000000  -0.000000  -0.000000   0.000000
   66  XE 1 YYZ   0.000000   0.000000  -0.000000  -0.000000   0.000000
   67  XE 1 ZZX   0.000000   0.000000  -0.000000  -0.000000   0.000000
   68  XE 1 ZZY   0.000000   0.000000  -0.000000  -0.000000   0.000000
   69  XE 1 XYZ   0.000000   0.000000  -0.000000  -0.000000   0.000000
   70  XE 1 XXX   0.000000   0.000000  -0.000000  -0.000000   0.000000
   71  XE 1 YYY   0.000000   0.000000  -0.000000  -0.000000   0.000000
   72  XE 1 ZZZ   0.000000   0.000000  -0.000000  -0.000000   0.000000
   73  XE 1 XXY   0.000000   0.000000  -0.000000  -0.000000   0.000000
   74  XE 1 XXZ   0.000000   0.000000  -0.000000  -0.000000   0.000000
   75  XE 1 YYX   0.000000   0.000000  -0.000000  -0.000000   0.000000
   76  XE 1 YYZ   0.000000   0.000000  -0.000000  -0.000000   0.000000
   77  XE 1 ZZX   0.000000   0.000000  -0.000000  -0.000000   0.000000
   78  XE 1 ZZY   0.000000   0.000000  -0.000000  -0.000000   0.000000
   79  XE 1 XYZ   0.000000   0.000000  -0.000000  -0.000000   0.000000

                     11         12         13         14         15
                  -25.7320   -25.7320   -25.7320   -25.7320    -8.4247
                     E1G        A1G        E2G        E2G        A1G 
    1  XE 1  S   -0.000000  -0.000000   0.000000   0.000000  -0.074485
    2  XE 1  S   -0.000000   0.000000   0.000000   0.000000   0.270229
    3  XE 1  S   -0.000000  -0.000000   0.000000   0.000000  -0.704928
    4  XE 1  S   -0.000000  -0.000000   0.000000   0.000000   1.179723
    5  XE 1  S   -0.000000  -0.000000   0.000000   0.000000   0.009443
    6  XE 1  S   -0.000000   0.000000   0.000000   0.000000  -0.005049
    7  XE 1  S   -0.000000   0.000000   0.000000   0.000000  -0.000400
    8  XE 1  S   -0.000000  -0.000000   0.000000   0.000000   0.000050
    9  XE 1  X   -0.000000  -0.000000   0.000000   0.000000   0.000000
   10  XE 1  Y   -0.000000  -0.000000   0.000000   0.000000   0.000000
   11  XE 1  Z   -0.000000  -0.000000   0.000000   0.000000   0.000000
   12  XE 1  X   -0.000000  -0.000000   0.000000   0.000000   0.000000
   13  XE 1  Y   -0.000000  -0.000000   0.000000   0.000000   0.000000
   14  XE 1  Z   -0.000000  -0.000000   0.000000   0.000000   0.000000
   15  XE 1  X   -0.000000  -0.000000   0.000000   0.000000   0.000000
   16  XE 1  Y   -0.000000  -0.000000   0.000000   0.000000   0.000000
   17  XE 1  Z   -0.000000  -0.000000   0.000000   0.000000   0.000000
   18  XE 1  X   -0.000000  -0.000000   0.000000   0.000000   0.000000
   19  XE 1  Y   -0.000000  -0.000000   0.000000   0.000000   0.000000
   20  XE 1  Z   -0.000000  -0.000000   0.000000   0.000000   0.000000
   21  XE 1  X   -0.000000  -0.000000   0.000000   0.000000   0.000000
   22  XE 1  Y   -0.000000  -0.000000   0.000000   0.000000   0.000000
   23  XE 1  Z   -0.000000  -0.000000   0.000000   0.000000   0.000000
   24  XE 1  X   -0.000000  -0.000000   0.000000   0.000000   0.000000
   25  XE 1  Y   -0.000000  -0.000000   0.000000   0.000000   0.000000
   26  XE 1  Z   -0.000000  -0.000000   0.000000   0.000000   0.000000
   27  XE 1  X   -0.000000  -0.000000   0.000000   0.000000   0.000000
   28  XE 1  Y   -0.000000  -0.000000   0.000000   0.000000   0.000000
   29  XE 1  Z   -0.000000  -0.000000   0.000000   0.000000   0.000000
   30  XE 1 XX   -0.000000  -0.498512   0.863448   0.000000   0.000000
   31  XE 1 YY   -0.000000  -0.498512  -0.863448   0.000000   0.000000
   32  XE 1 ZZ   -0.000000   0.997023   0.000000   0.000000   0.000000
   33  XE 1 XY   -0.000000  -0.000000   0.000000   0.997023   0.000000
   34  XE 1 XZ    0.997023  -0.000000   0.000000   0.000000   0.000000
   35  XE 1 YZ   -0.000000  -0.000000   0.000000   0.000000   0.000000
   36  XE 1 XX   -0.000000  -0.003842   0.006654   0.000000   0.000000
   37  XE 1 YY   -0.000000  -0.003842  -0.006654   0.000000   0.000000
   38  XE 1 ZZ   -0.000000   0.007683   0.000000   0.000000   0.000000
   39  XE 1 XY   -0.000000  -0.000000   0.000000   0.007683   0.000000
   40  XE 1 XZ    0.007683  -0.000000   0.000000   0.000000   0.000000
   41  XE 1 YZ   -0.000000  -0.000000   0.000000   0.000000   0.000000
   42  XE 1 XX   -0.000000   0.000686  -0.001189   0.000000   0.000000
   43  XE 1 YY   -0.000000   0.000686   0.001189   0.000000   0.000000
   44  XE 1 ZZ   -0.000000  -0.001373   0.000000   0.000000  -0.000000
   45  XE 1 XY   -0.000000  -0.000000   0.000000  -0.001373   0.000000
   46  XE 1 XZ   -0.001373  -0.000000   0.000000   0.000000   0.000000
   47  XE 1 YZ   -0.000000  -0.000000   0.000000   0.000000   0.000000
   48  XE 1 XX   -0.000000  -0.000098   0.000171   0.000000   0.000000
   49  XE 1 YY   -0.000000  -0.000098  -0.000171   0.000000   0.000000
   50  XE 1 ZZ   -0.000000   0.000197   0.000000   0.000000   0.000000
   51  XE 1 XY   -0.000000  -0.000000   0.000000   0.000197   0.000000
   52  XE 1 XZ    0.000197  -0.000000   0.000000   0.000000   0.000000
   53  XE 1 YZ   -0.000000  -0.000000   0.000000   0.000000   0.000000
   54  XE 1 XX   -0.000000   0.000016  -0.000027   0.000000   0.000000
   55  XE 1 YY   -0.000000   0.000016   0.000027   0.000000   0.000000
   56  XE 1 ZZ   -0.000000  -0.000031   0.000000   0.000000   0.000000
   57  XE 1 XY   -0.000000  -0.000000   0.000000  -0.000031   0.000000
   58  XE 1 XZ   -0.000031  -0.000000   0.000000   0.000000   0.000000
   59  XE 1 YZ   -0.000000  -0.000000   0.000000   0.000000   0.000000
   60  XE 1 XXX  -0.000000  -0.000000   0.000000   0.000000   0.000000
   61  XE 1 YYY  -0.000000  -0.000000   0.000000   0.000000   0.000000
   62  XE 1 ZZZ  -0.000000  -0.000000   0.000000   0.000000   0.000000
   63  XE 1 XXY  -0.000000  -0.000000   0.000000   0.000000   0.000000
   64  XE 1 XXZ  -0.000000  -0.000000   0.000000   0.000000   0.000000
   65  XE 1 YYX  -0.000000  -0.000000   0.000000   0.000000   0.000000
   66  XE 1 YYZ  -0.000000  -0.000000   0.000000   0.000000   0.000000
   67  XE 1 ZZX  -0.000000  -0.000000   0.000000   0.000000   0.000000
   68  XE 1 ZZY  -0.000000  -0.000000   0.000000   0.000000   0.000000
   69  XE 1 XYZ  -0.000000  -0.000000   0.000000   0.000000   0.000000
   70  XE 1 XXX  -0.000000  -0.000000   0.000000   0.000000   0.000000
   71  XE 1 YYY  -0.000000  -0.000000   0.000000   0.000000   0.000000
   72  XE 1 ZZZ  -0.000000  -0.000000   0.000000   0.000000   0.000000
   73  XE 1 XXY  -0.000000  -0.000000   0.000000   0.000000   0.000000
   74  XE 1 XXZ  -0.000000  -0.000000   0.000000   0.000000   0.000000
   75  XE 1 YYX  -0.000000  -0.000000   0.000000   0.000000   0.000000
   76  XE 1 YYZ  -0.000000  -0.000000   0.000000   0.000000   0.000000
   77  XE 1 ZZX  -0.000000  -0.000000   0.000000   0.000000   0.000000
   78  XE 1 ZZY  -0.000000  -0.000000   0.000000   0.000000   0.000000
   79  XE 1 XYZ  -0.000000  -0.000000   0.000000   0.000000   0.000000

                     16         17         18         19         20
                   -6.1307    -6.1307    -6.1307    -2.6651    -2.6651
                     A2U        E1U        E1U        A1G        E1G 
    1  XE 1  S   -0.000000  -0.000000  -0.000000  -0.000000   0.000000
    2  XE 1  S   -0.000000  -0.000000  -0.000000  -0.000000   0.000000
    3  XE 1  S   -0.000000  -0.000000  -0.000000   0.000000   0.000000
    4  XE 1  S   -0.000000  -0.000000  -0.000000   0.000000   0.000000
    5  XE 1  S   -0.000000  -0.000000  -0.000000   0.000000   0.000000
    6  XE 1  S   -0.000000  -0.000000  -0.000000  -0.000000   0.000000
    7  XE 1  S   -0.000000  -0.000000  -0.000000  -0.000000   0.000000
    8  XE 1  S   -0.000000  -0.000000  -0.000000  -0.000000   0.000000
    9  XE 1  X   -0.000000   0.219386  -0.000000  -0.000000   0.000000
   10  XE 1  Y   -0.000000  -0.000000   0.219386  -0.000000   0.000000
   11  XE 1  Z    0.219386  -0.000000  -0.000000  -0.000000   0.000000
   12  XE 1  X   -0.000000  -0.722866  -0.000000  -0.000000   0.000000
   13  XE 1  Y   -0.000000  -0.000000  -0.722866  -0.000000   0.000000
   14  XE 1  Z   -0.722866  -0.000000  -0.000000  -0.000000   0.000000
   15  XE 1  X   -0.000000   1.191650  -0.000000  -0.000000   0.000000
   16  XE 1  Y   -0.000000  -0.000000   1.191650  -0.000000   0.000000
   17  XE 1  Z    1.191650  -0.000000  -0.000000  -0.000000   0.000000
   18  XE 1  X   -0.000000   0.000572  -0.000000  -0.000000   0.000000
   19  XE 1  Y   -0.000000  -0.000000   0.000572  -0.000000   0.000000
   20  XE 1  Z    0.000572  -0.000000  -0.000000  -0.000000   0.000000
   21  XE 1  X   -0.000000   0.002080  -0.000000  -0.000000   0.000000
   22  XE 1  Y   -0.000000  -0.000000   0.002080  -0.000000   0.000000
   23  XE 1  Z    0.002080  -0.000000  -0.000000  -0.000000   0.000000
   24  XE 1  X   -0.000000  -0.000094  -0.000000  -0.000000   0.000000
   25  XE 1  Y   -0.000000  -0.000000  -0.000094  -0.000000   0.000000
   26  XE 1  Z   -0.000094  -0.000000  -0.000000  -0.000000   0.000000
   27  XE 1  X   -0.000000   0.000004  -0.000000  -0.000000   0.000000
   28  XE 1  Y   -0.000000  -0.000000   0.000004  -0.000000   0.000000
   29  XE 1  Z    0.000004  -0.000000  -0.000000  -0.000000   0.000000
   30  XE 1 XX   -0.000000  -0.000000  -0.000000   0.215539   0.000000
   31  XE 1 YY   -0.000000  -0.000000  -0.000000   0.215539   0.000000
   32  XE 1 ZZ   -0.000000  -0.000000  -0.000000  -0.431078   0.000000
   33  XE 1 XY   -0.000000  -0.000000  -0.000000  -0.000000   0.000000
   34  XE 1 XZ   -0.000000  -0.000000  -0.000000  -0.000000   0.000000
   35  XE 1 YZ   -0.000000  -0.000000  -0.000000  -0.000000  -0.431078
   36  XE 1 XX   -0.000000  -0.000000  -0.000000  -0.543599   0.000000
   37  XE 1 YY   -0.000000  -0.000000  -0.000000  -0.543599   0.000000
   38  XE 1 ZZ   -0.000000  -0.000000  -0.000000   1.087198   0.000000
   39  XE 1 XY   -0.000000  -0.000000  -0.000000  -0.000000   0.000000
   40  XE 1 XZ   -0.000000  -0.000000  -0.000000  -0.000000   0.000000
   41  XE 1 YZ   -0.000000  -0.000000  -0.000000  -0.000000   1.087198
   42  XE 1 XX   -0.000000  -0.000000  -0.000000   0.002124   0.000000
   43  XE 1 YY   -0.000000  -0.000000  -0.000000   0.002124   0.000000
   44  XE 1 ZZ   -0.000000  -0.000000  -0.000000  -0.004249   0.000000
   45  XE 1 XY   -0.000000  -0.000000  -0.000000  -0.000000   0.000000
   46  XE 1 XZ   -0.000000  -0.000000  -0.000000  -0.000000   0.000000
   47  XE 1 YZ   -0.000000  -0.000000  -0.000000  -0.000000  -0.004249
   48  XE 1 XX   -0.000000  -0.000000  -0.000000  -0.002981   0.000000
   49  XE 1 YY   -0.000000  -0.000000  -0.000000  -0.002981   0.000000
   50  XE 1 ZZ   -0.000000  -0.000000  -0.000000   0.005961   0.000000
   51  XE 1 XY   -0.000000  -0.000000  -0.000000  -0.000000   0.000000
   52  XE 1 XZ   -0.000000  -0.000000  -0.000000  -0.000000   0.000000
   53  XE 1 YZ   -0.000000  -0.000000  -0.000000  -0.000000   0.005961
   54  XE 1 XX   -0.000000  -0.000000  -0.000000  -0.000504   0.000000
   55  XE 1 YY   -0.000000  -0.000000  -0.000000  -0.000504   0.000000
   56  XE 1 ZZ   -0.000000  -0.000000  -0.000000   0.001007   0.000000
   57  XE 1 XY   -0.000000  -0.000000  -0.000000  -0.000000   0.000000
   58  XE 1 XZ   -0.000000  -0.000000  -0.000000  -0.000000   0.000000
   59  XE 1 YZ   -0.000000  -0.000000  -0.000000  -0.000000   0.001007
   60  XE 1 XXX  -0.000000  -0.000000  -0.000000  -0.000000   0.000000
   61  XE 1 YYY  -0.000000  -0.000000  -0.000000  -0.000000   0.000000
   62  XE 1 ZZZ  -0.000000  -0.000000  -0.000000  -0.000000   0.000000
   63  XE 1 XXY  -0.000000  -0.000000  -0.000000  -0.000000   0.000000
   64  XE 1 XXZ  -0.000000  -0.000000  -0.000000  -0.000000   0.000000
   65  XE 1 YYX  -0.000000  -0.000000  -0.000000  -0.000000   0.000000
   66  XE 1 YYZ  -0.000000  -0.000000  -0.000000  -0.000000   0.000000
   67  XE 1 ZZX  -0.000000  -0.000000  -0.000000  -0.000000   0.000000
   68  XE 1 ZZY  -0.000000  -0.000000  -0.000000  -0.000000   0.000000
   69  XE 1 XYZ  -0.000000  -0.000000  -0.000000  -0.000000   0.000000
   70  XE 1 XXX  -0.000000  -0.000000  -0.000000  -0.000000   0.000000
   71  XE 1 YYY  -0.000000  -0.000000  -0.000000  -0.000000   0.000000
   72  XE 1 ZZZ  -0.000000  -0.000000  -0.000000  -0.000000   0.000000
   73  XE 1 XXY  -0.000000  -0.000000  -0.000000  -0.000000   0.000000
   74  XE 1 XXZ  -0.000000  -0.000000  -0.000000  -0.000000   0.000000
   75  XE 1 YYX  -0.000000  -0.000000  -0.000000  -0.000000   0.000000
   76  XE 1 YYZ  -0.000000  -0.000000  -0.000000  -0.000000   0.000000
   77  XE 1 ZZX  -0.000000  -0.000000  -0.000000  -0.000000   0.000000
   78  XE 1 ZZY  -0.000000  -0.000000  -0.000000  -0.000000   0.000000
   79  XE 1 XYZ  -0.000000  -0.000000  -0.000000  -0.000000   0.000000

                     21         22         23         24         25
                   -2.6651    -2.6651    -2.6651    -1.0096    -0.4565
                     E1G        E2G        E2G        A1G        A2U 
    1  XE 1  S   -0.000000   0.000000   0.000000   0.026390  -0.000000
    2  XE 1  S   -0.000000   0.000000   0.000000  -0.096885  -0.000000
    3  XE 1  S   -0.000000   0.000000   0.000000   0.264020  -0.000000
    4  XE 1  S   -0.000000   0.000000   0.000000  -0.578882  -0.000000
    5  XE 1  S   -0.000000   0.000000   0.000000   0.724821  -0.000000
    6  XE 1  S   -0.000000   0.000000   0.000000  -0.006175  -0.000000
    7  XE 1  S   -0.000000   0.000000   0.000000   0.424434  -0.000000
    8  XE 1  S   -0.000000   0.000000   0.000000   0.004214  -0.000000
    9  XE 1  X   -0.000000   0.000000   0.000000  -0.000000  -0.000000
   10  XE 1  Y   -0.000000   0.000000   0.000000  -0.000000  -0.000000
   11  XE 1  Z   -0.000000   0.000000   0.000000  -0.000000  -0.067642
   12  XE 1  X   -0.000000   0.000000   0.000000  -0.000000  -0.000000
   13  XE 1  Y   -0.000000   0.000000   0.000000  -0.000000  -0.000000
   14  XE 1  Z   -0.000000   0.000000   0.000000  -0.000000   0.238624
   15  XE 1  X   -0.000000   0.000000   0.000000  -0.000000  -0.000000
   16  XE 1  Y   -0.000000   0.000000   0.000000  -0.000000  -0.000000
   17  XE 1  Z   -0.000000   0.000000   0.000000  -0.000000  -0.533911
   18  XE 1  X   -0.000000   0.000000   0.000000  -0.000000  -0.000000
   19  XE 1  Y   -0.000000   0.000000   0.000000  -0.000000  -0.000000
   20  XE 1  Z   -0.000000   0.000000   0.000000  -0.000000   0.424327
   21  XE 1  X   -0.000000   0.000000   0.000000  -0.000000  -0.000000
   22  XE 1  Y   -0.000000   0.000000   0.000000  -0.000000  -0.000000
   23  XE 1  Z   -0.000000   0.000000   0.000000  -0.000000   0.567342
   24  XE 1  X   -0.000000   0.000000   0.000000  -0.000000  -0.000000
   25  XE 1  Y   -0.000000   0.000000   0.000000  -0.000000  -0.000000
   26  XE 1  Z   -0.000000   0.000000   0.000000  -0.000000   0.219750
   27  XE 1  X   -0.000000   0.000000   0.000000  -0.000000  -0.000000
   28  XE 1  Y   -0.000000   0.000000   0.000000  -0.000000  -0.000000
   29  XE 1  Z   -0.000000   0.000000   0.000000  -0.000000   0.002968
   30  XE 1 XX   -0.000000  -0.373324   0.000000  -0.000000  -0.000000
   31  XE 1 YY   -0.000000   0.373324   0.000000  -0.000000  -0.000000
   32  XE 1 ZZ   -0.000000   0.000000   0.000000  -0.000000  -0.000000
   33  XE 1 XY   -0.000000   0.000000  -0.431078  -0.000000  -0.000000
   34  XE 1 XZ   -0.431078   0.000000   0.000000  -0.000000  -0.000000
   35  XE 1 YZ   -0.000000   0.000000   0.000000  -0.000000  -0.000000
   36  XE 1 XX   -0.000000   0.941541   0.000000  -0.000000  -0.000000
   37  XE 1 YY   -0.000000  -0.941541   0.000000  -0.000000  -0.000000
   38  XE 1 ZZ   -0.000000   0.000000   0.000000  -0.000000  -0.000000
   39  XE 1 XY   -0.000000   0.000000   1.087198  -0.000000  -0.000000
   40  XE 1 XZ    1.087198   0.000000   0.000000  -0.000000  -0.000000
   41  XE 1 YZ   -0.000000   0.000000   0.000000  -0.000000  -0.000000
   42  XE 1 XX   -0.000000  -0.003680   0.000000  -0.000000  -0.000000
   43  XE 1 YY   -0.000000   0.003680   0.000000  -0.000000  -0.000000
   44  XE 1 ZZ   -0.000000   0.000000   0.000000   0.000000  -0.000000
   45  XE 1 XY   -0.000000   0.000000  -0.004249  -0.000000  -0.000000
   46  XE 1 XZ   -0.004249   0.000000   0.000000  -0.000000  -0.000000
   47  XE 1 YZ   -0.000000   0.000000   0.000000  -0.000000  -0.000000
   48  XE 1 XX   -0.000000   0.005163   0.000000  -0.000000  -0.000000
   49  XE 1 YY   -0.000000  -0.005163   0.000000  -0.000000  -0.000000
   50  XE 1 ZZ   -0.000000   0.000000   0.000000  -0.000000  -0.000000
   51  XE 1 XY   -0.000000   0.000000   0.005961  -0.000000  -0.000000
   52  XE 1 XZ    0.005961   0.000000   0.000000  -0.000000  -0.000000
   53  XE 1 YZ   -0.000000   0.000000   0.000000  -0.000000  -0.000000
   54  XE 1 XX   -0.000000   0.000872   0.000000  -0.000000  -0.000000
   55  XE 1 YY   -0.000000  -0.000872   0.000000  -0.000000  -0.000000
   56  XE 1 ZZ   -0.000000   0.000000   0.000000  -0.000000  -0.000000
   57  XE 1 XY   -0.000000   0.000000   0.001007  -0.000000  -0.000000
   58  XE 1 XZ    0.001007   0.000000   0.000000  -0.000000  -0.000000
   59  XE 1 YZ   -0.000000   0.000000   0.000000  -0.000000  -0.000000
   60  XE 1 XXX  -0.000000   0.000000   0.000000  -0.000000  -0.000000
   61  XE 1 YYY  -0.000000   0.000000   0.000000  -0.000000  -0.000000
   62  XE 1 ZZZ  -0.000000   0.000000   0.000000  -0.000000  -0.000000
   63  XE 1 XXY  -0.000000   0.000000   0.000000  -0.000000  -0.000000
   64  XE 1 XXZ  -0.000000   0.000000   0.000000  -0.000000  -0.000000
   65  XE 1 YYX  -0.000000   0.000000   0.000000  -0.000000  -0.000000
   66  XE 1 YYZ  -0.000000   0.000000   0.000000  -0.000000  -0.000000
   67  XE 1 ZZX  -0.000000   0.000000   0.000000  -0.000000  -0.000000
   68  XE 1 ZZY  -0.000000   0.000000   0.000000  -0.000000  -0.000000
   69  XE 1 XYZ  -0.000000   0.000000   0.000000  -0.000000  -0.000000
   70  XE 1 XXX  -0.000000   0.000000   0.000000  -0.000000  -0.000000
   71  XE 1 YYY  -0.000000   0.000000   0.000000  -0.000000  -0.000000
   72  XE 1 ZZZ  -0.000000   0.000000   0.000000  -0.000000  -0.000000
   73  XE 1 XXY  -0.000000   0.000000   0.000000  -0.000000  -0.000000
   74  XE 1 XXZ  -0.000000   0.000000   0.000000  -0.000000  -0.000000
   75  XE 1 YYX  -0.000000   0.000000   0.000000  -0.000000  -0.000000
   76  XE 1 YYZ  -0.000000   0.000000   0.000000  -0.000000  -0.000000
   77  XE 1 ZZX  -0.000000   0.000000   0.000000  -0.000000  -0.000000
   78  XE 1 ZZY  -0.000000   0.000000   0.000000  -0.000000  -0.000000
   79  XE 1 XYZ  -0.000000   0.000000   0.000000  -0.000000  -0.000000

                     26         27         28         29         30
                   -0.4565    -0.4565     0.0712     0.0712     0.0712
                     E1U        E1U        A2U        E1U        E1U 
    1  XE 1  S   -0.000000  -0.000000  -0.000000  -0.000000  -0.000000
    2  XE 1  S   -0.000000  -0.000000  -0.000000  -0.000000  -0.000000
    3  XE 1  S   -0.000000  -0.000000  -0.000000  -0.000000  -0.000000
    4  XE 1  S   -0.000000  -0.000000  -0.000000  -0.000000  -0.000000
    5  XE 1  S   -0.000000  -0.000000  -0.000000  -0.000000  -0.000000
    6  XE 1  S   -0.000000  -0.000000  -0.000000  -0.000000  -0.000000
    7  XE 1  S   -0.000000  -0.000000  -0.000000  -0.000000  -0.000000
    8  XE 1  S   -0.000000  -0.000000  -0.000000  -0.000000  -0.000000
    9  XE 1  X   -0.067642  -0.000000  -0.000000   0.012930  -0.000000
   10  XE 1  Y   -0.000000  -0.067642  -0.000000  -0.000000   0.012930
   11  XE 1  Z   -0.000000  -0.000000   0.012930  -0.000000  -0.000000
   12  XE 1  X    0.238624  -0.000000  -0.000000  -0.045964  -0.000000
   13  XE 1  Y   -0.000000   0.238624  -0.000000  -0.000000  -0.045964
   14  XE 1  Z   -0.000000  -0.000000  -0.045964  -0.000000  -0.000000
   15  XE 1  X   -0.533911  -0.000000  -0.000000   0.106802  -0.000000
   16  XE 1  Y   -0.000000  -0.533911  -0.000000  -0.000000   0.106802
   17  XE 1  Z   -0.000000  -0.000000   0.106802  -0.000000  -0.000000
   18  XE 1  X    0.424327  -0.000000  -0.000000  -0.140768  -0.000000
   19  XE 1  Y   -0.000000   0.424327  -0.000000  -0.000000  -0.140768
   20  XE 1  Z   -0.000000  -0.000000  -0.140768  -0.000000  -0.000000
   21  XE 1  X    0.567342  -0.000000  -0.000000   0.082191  -0.000000
   22  XE 1  Y   -0.000000   0.567342  -0.000000  -0.000000   0.082191
   23  XE 1  Z   -0.000000  -0.000000   0.082191  -0.000000  -0.000000
   24  XE 1  X    0.219750  -0.000000  -0.000000  -0.628570  -0.000000
   25  XE 1  Y   -0.000000   0.219750  -0.000000  -0.000000  -0.628570
   26  XE 1  Z   -0.000000  -0.000000  -0.628570  -0.000000  -0.000000
   27  XE 1  X    0.002968  -0.000000  -0.000000   1.323168  -0.000000
   28  XE 1  Y   -0.000000   0.002968  -0.000000  -0.000000   1.323168
   29  XE 1  Z   -0.000000  -0.000000   1.323168  -0.000000  -0.000000
   30  XE 1 XX   -0.000000  -0.000000  -0.000000  -0.000000  -0.000000
   31  XE 1 YY   -0.000000  -0.000000  -0.000000  -0.000000  -0.000000
   32  XE 1 ZZ   -0.000000  -0.000000  -0.000000  -0.000000  -0.000000
   33  XE 1 XY   -0.000000  -0.000000  -0.000000  -0.000000  -0.000000
   34  XE 1 XZ   -0.000000  -0.000000  -0.000000  -0.000000  -0.000000
   35  XE 1 YZ   -0.000000  -0.000000  -0.000000  -0.000000  -0.000000
   36  XE 1 XX   -0.000000  -0.000000  -0.000000  -0.000000  -0.000000
   37  XE 1 YY   -0.000000  -0.000000  -0.000000  -0.000000  -0.000000
   38  XE 1 ZZ   -0.000000  -0.000000  -0.000000  -0.000000  -0.000000
   39  XE 1 XY   -0.000000  -0.000000  -0.000000  -0.000000  -0.000000
   40  XE 1 XZ   -0.000000  -0.000000  -0.000000  -0.000000  -0.000000
   41  XE 1 YZ   -0.000000  -0.000000  -0.000000  -0.000000  -0.000000
   42  XE 1 XX   -0.000000  -0.000000  -0.000000  -0.000000  -0.000000
   43  XE 1 YY   -0.000000  -0.000000  -0.000000  -0.000000  -0.000000
   44  XE 1 ZZ   -0.000000  -0.000000  -0.000000  -0.000000  -0.000000
   45  XE 1 XY   -0.000000  -0.000000  -0.000000  -0.000000  -0.000000
   46  XE 1 XZ   -0.000000  -0.000000  -0.000000  -0.000000  -0.000000
   47  XE 1 YZ   -0.000000  -0.000000  -0.000000  -0.000000  -0.000000
   48  XE 1 XX   -0.000000  -0.000000  -0.000000  -0.000000  -0.000000
   49  XE 1 YY   -0.000000  -0.000000  -0.000000  -0.000000  -0.000000
   50  XE 1 ZZ   -0.000000  -0.000000  -0.000000  -0.000000  -0.000000
   51  XE 1 XY   -0.000000  -0.000000  -0.000000  -0.000000  -0.000000
   52  XE 1 XZ   -0.000000  -0.000000  -0.000000  -0.000000  -0.000000
   53  XE 1 YZ   -0.000000  -0.000000  -0.000000  -0.000000  -0.000000
   54  XE 1 XX   -0.000000  -0.000000  -0.000000  -0.000000  -0.000000
   55  XE 1 YY   -0.000000  -0.000000  -0.000000  -0.000000  -0.000000
   56  XE 1 ZZ   -0.000000  -0.000000  -0.000000  -0.000000  -0.000000
   57  XE 1 XY   -0.000000  -0.000000  -0.000000  -0.000000  -0.000000
   58  XE 1 XZ   -0.000000  -0.000000  -0.000000  -0.000000  -0.000000
   59  XE 1 YZ   -0.000000  -0.000000  -0.000000  -0.000000  -0.000000
   60  XE 1 XXX  -0.000000  -0.000000  -0.000000  -0.000000  -0.000000
   61  XE 1 YYY  -0.000000  -0.000000  -0.000000  -0.000000  -0.000000
   62  XE 1 ZZZ  -0.000000  -0.000000  -0.000000  -0.000000  -0.000000
   63  XE 1 XXY  -0.000000  -0.000000  -0.000000  -0.000000  -0.000000
   64  XE 1 XXZ  -0.000000  -0.000000  -0.000000  -0.000000  -0.000000
   65  XE 1 YYX  -0.000000  -0.000000  -0.000000  -0.000000  -0.000000
   66  XE 1 YYZ  -0.000000  -0.000000  -0.000000  -0.000000  -0.000000
   67  XE 1 ZZX  -0.000000  -0.000000  -0.000000  -0.000000  -0.000000
   68  XE 1 ZZY  -0.000000  -0.000000  -0.000000  -0.000000  -0.000000
   69  XE 1 XYZ  -0.000000  -0.000000  -0.000000  -0.000000  -0.000000
   70  XE 1 XXX  -0.000000  -0.000000  -0.000000  -0.000000  -0.000000
   71  XE 1 YYY  -0.000000  -0.000000  -0.000000  -0.000000  -0.000000
   72  XE 1 ZZZ  -0.000000  -0.000000  -0.000000  -0.000000  -0.000000
   73  XE 1 XXY  -0.000000  -0.000000  -0.000000  -0.000000  -0.000000
   74  XE 1 XXZ  -0.000000  -0.000000  -0.000000  -0.000000  -0.000000
   75  XE 1 YYX  -0.000000  -0.000000  -0.000000  -0.000000  -0.000000
   76  XE 1 YYZ  -0.000000  -0.000000  -0.000000  -0.000000  -0.000000
   77  XE 1 ZZX   0.000000  -0.000000  -0.000000   0.000000  -0.000000
   78  XE 1 ZZY  -0.000000   0.000000  -0.000000  -0.000000   0.000000
   79  XE 1 XYZ  -0.000000  -0.000000  -0.000000  -0.000000  -0.000000

                     31         32         33         34         35
                    0.0903     0.1875     0.1875     0.1875     0.1875
                     A1G        A1G        E2G        E2G        E1G 
    1  XE 1  S   -0.006319   0.000000  -0.000000  -0.000000  -0.000000
    2  XE 1  S    0.044709   0.000000  -0.000000  -0.000000  -0.000000
    3  XE 1  S   -0.020684   0.000000  -0.000000  -0.000000  -0.000000
    4  XE 1  S    0.380403   0.000000  -0.000000  -0.000000  -0.000000
    5  XE 1  S    0.344372  -0.000000  -0.000000  -0.000000  -0.000000
    6  XE 1  S   -0.368549   0.000000  -0.000000  -0.000000  -0.000000
    7  XE 1  S   -1.400665  -0.000000  -0.000000  -0.000000  -0.000000
    8  XE 1  S    1.739105   0.000000  -0.000000  -0.000000  -0.000000
    9  XE 1  X    0.000000   0.000000  -0.000000  -0.000000  -0.000000
   10  XE 1  Y    0.000000   0.000000  -0.000000  -0.000000  -0.000000
   11  XE 1  Z    0.000000   0.000000  -0.000000  -0.000000  -0.000000
   12  XE 1  X    0.000000   0.000000  -0.000000  -0.000000  -0.000000
   13  XE 1  Y    0.000000   0.000000  -0.000000  -0.000000  -0.000000
   14  XE 1  Z    0.000000   0.000000  -0.000000  -0.000000  -0.000000
   15  XE 1  X    0.000000   0.000000  -0.000000  -0.000000  -0.000000
   16  XE 1  Y    0.000000   0.000000  -0.000000  -0.000000  -0.000000
   17  XE 1  Z    0.000000   0.000000  -0.000000  -0.000000  -0.000000
   18  XE 1  X    0.000000   0.000000  -0.000000  -0.000000  -0.000000
   19  XE 1  Y    0.000000   0.000000  -0.000000  -0.000000  -0.000000
   20  XE 1  Z    0.000000   0.000000  -0.000000  -0.000000  -0.000000
   21  XE 1  X    0.000000   0.000000  -0.000000  -0.000000  -0.000000
   22  XE 1  Y    0.000000   0.000000  -0.000000  -0.000000  -0.000000
   23  XE 1  Z    0.000000   0.000000  -0.000000  -0.000000  -0.000000
   24  XE 1  X    0.000000   0.000000  -0.000000  -0.000000  -0.000000
   25  XE 1  Y    0.000000   0.000000  -0.000000  -0.000000  -0.000000
   26  XE 1  Z    0.000000   0.000000  -0.000000  -0.000000  -0.000000
   27  XE 1  X    0.000000   0.000000  -0.000000  -0.000000  -0.000000
   28  XE 1  Y    0.000000   0.000000  -0.000000  -0.000000  -0.000000
   29  XE 1  Z    0.000000   0.000000  -0.000000  -0.000000  -0.000000
   30  XE 1 XX    0.000000  -0.022731   0.039371  -0.000000  -0.000000
   31  XE 1 YY    0.000000  -0.022731  -0.039371  -0.000000  -0.000000
   32  XE 1 ZZ    0.000000   0.045462  -0.000000  -0.000000  -0.000000
   33  XE 1 XY    0.000000   0.000000  -0.000000   0.045462  -0.000000
   34  XE 1 XZ    0.000000   0.000000  -0.000000  -0.000000  -0.000000
   35  XE 1 YZ    0.000000   0.000000  -0.000000  -0.000000   0.045462
   36  XE 1 XX    0.000000   0.065023  -0.112623  -0.000000  -0.000000
   37  XE 1 YY    0.000000   0.065023   0.112623  -0.000000  -0.000000
   38  XE 1 ZZ    0.000000  -0.130046  -0.000000  -0.000000  -0.000000
   39  XE 1 XY    0.000000   0.000000  -0.000000  -0.130046  -0.000000
   40  XE 1 XZ    0.000000   0.000000  -0.000000  -0.000000  -0.000000
   41  XE 1 YZ    0.000000   0.000000  -0.000000  -0.000000  -0.130046
   42  XE 1 XX    0.000000  -0.066721   0.115564  -0.000000  -0.000000
   43  XE 1 YY    0.000000  -0.066721  -0.115564  -0.000000  -0.000000
   44  XE 1 ZZ    0.000000   0.133442  -0.000000  -0.000000  -0.000000
   45  XE 1 XY    0.000000   0.000000  -0.000000   0.133442  -0.000000
   46  XE 1 XZ    0.000000   0.000000  -0.000000  -0.000000  -0.000000
   47  XE 1 YZ    0.000000   0.000000  -0.000000  -0.000000   0.133442
   48  XE 1 XX    0.000000   0.024444  -0.042339  -0.000000  -0.000000
   49  XE 1 YY    0.000000   0.024444   0.042339  -0.000000  -0.000000
   50  XE 1 ZZ    0.000000  -0.048888  -0.000000  -0.000000  -0.000000
   51  XE 1 XY    0.000000   0.000000  -0.000000  -0.048888  -0.000000
   52  XE 1 XZ    0.000000   0.000000  -0.000000  -0.000000  -0.000000
   53  XE 1 YZ    0.000000   0.000000  -0.000000  -0.000000  -0.048888
   54  XE 1 XX    0.000000  -0.499408   0.864999  -0.000000  -0.000000
   55  XE 1 YY    0.000000  -0.499408  -0.864999  -0.000000  -0.000000
   56  XE 1 ZZ   -0.000000   0.998815  -0.000000  -0.000000  -0.000000
   57  XE 1 XY    0.000000   0.000000  -0.000000   0.998815  -0.000000
   58  XE 1 XZ    0.000000   0.000000  -0.000000  -0.000000  -0.000000
   59  XE 1 YZ    0.000000   0.000000  -0.000000  -0.000000   0.998815
   60  XE 1 XXX   0.000000   0.000000  -0.000000  -0.000000  -0.000000
   61  XE 1 YYY   0.000000   0.000000  -0.000000  -0.000000  -0.000000
   62  XE 1 ZZZ   0.000000   0.000000  -0.000000  -0.000000  -0.000000
   63  XE 1 XXY   0.000000   0.000000  -0.000000  -0.000000  -0.000000
   64  XE 1 XXZ   0.000000   0.000000  -0.000000  -0.000000  -0.000000
   65  XE 1 YYX   0.000000   0.000000  -0.000000  -0.000000  -0.000000
   66  XE 1 YYZ   0.000000   0.000000  -0.000000  -0.000000  -0.000000
   67  XE 1 ZZX   0.000000   0.000000  -0.000000  -0.000000  -0.000000
   68  XE 1 ZZY   0.000000   0.000000  -0.000000  -0.000000  -0.000000
   69  XE 1 XYZ   0.000000   0.000000  -0.000000  -0.000000  -0.000000
   70  XE 1 XXX   0.000000   0.000000  -0.000000  -0.000000  -0.000000
   71  XE 1 YYY   0.000000   0.000000  -0.000000  -0.000000  -0.000000
   72  XE 1 ZZZ   0.000000   0.000000  -0.000000  -0.000000  -0.000000
   73  XE 1 XXY   0.000000   0.000000  -0.000000  -0.000000  -0.000000
   74  XE 1 XXZ   0.000000   0.000000  -0.000000  -0.000000  -0.000000
   75  XE 1 YYX   0.000000   0.000000  -0.000000  -0.000000  -0.000000
   76  XE 1 YYZ   0.000000   0.000000  -0.000000  -0.000000  -0.000000
   77  XE 1 ZZX   0.000000   0.000000  -0.000000  -0.000000  -0.000000
   78  XE 1 ZZY   0.000000   0.000000  -0.000000  -0.000000  -0.000000
   79  XE 1 XYZ   0.000000   0.000000  -0.000000  -0.000000  -0.000000

                     36         37         38         39         40
                    0.1875     0.3730     0.3730     0.3730     0.5628
                     E1G        A2U        E1U        E1U        A1G 
    1  XE 1  S    0.000000   0.000000   0.000000   0.000000   0.000000
    2  XE 1  S    0.000000   0.000000   0.000000   0.000000   0.000000
    3  XE 1  S    0.000000   0.000000   0.000000   0.000000  -0.000000
    4  XE 1  S    0.000000   0.000000   0.000000   0.000000  -0.000000
    5  XE 1  S    0.000000   0.000000   0.000000   0.000000  -0.000000
    6  XE 1  S    0.000000   0.000000   0.000000   0.000000   0.000000
    7  XE 1  S    0.000000   0.000000   0.000000   0.000000   0.000000
    8  XE 1  S    0.000000   0.000000   0.000000   0.000000  -0.000000
    9  XE 1  X    0.000000   0.000000   0.034271   0.000000   0.000000
   10  XE 1  Y    0.000000   0.000000   0.000000   0.034271   0.000000
   11  XE 1  Z    0.000000   0.034271   0.000000   0.000000   0.000000
   12  XE 1  X    0.000000   0.000000  -0.120758   0.000000   0.000000
   13  XE 1  Y    0.000000   0.000000   0.000000  -0.120758   0.000000
   14  XE 1  Z    0.000000  -0.120758   0.000000   0.000000   0.000000
   15  XE 1  X    0.000000   0.000000   0.266481   0.000000   0.000000
   16  XE 1  Y    0.000000   0.000000   0.000000   0.266481   0.000000
   17  XE 1  Z    0.000000   0.266481   0.000000   0.000000   0.000000
   18  XE 1  X    0.000000   0.000000   0.009554   0.000000   0.000000
   19  XE 1  Y    0.000000   0.000000   0.000000   0.009554   0.000000
   20  XE 1  Z    0.000000   0.009554   0.000000   0.000000   0.000000
   21  XE 1  X    0.000000   0.000000  -1.587105   0.000000   0.000000
   22  XE 1  Y    0.000000   0.000000   0.000000  -1.587105   0.000000
   23  XE 1  Z    0.000000  -1.587105   0.000000   0.000000   0.000000
   24  XE 1  X    0.000000   0.000000   2.342635   0.000000   0.000000
   25  XE 1  Y    0.000000   0.000000   0.000000   2.342635   0.000000
   26  XE 1  Z    0.000000   2.342635   0.000000   0.000000   0.000000
   27  XE 1  X    0.000000   0.000000  -0.900744   0.000000   0.000000
   28  XE 1  Y    0.000000   0.000000   0.000000  -0.900744   0.000000
   29  XE 1  Z    0.000000  -0.900744   0.000000   0.000000   0.000000
   30  XE 1 XX    0.000000   0.000000   0.000000   0.000000  -0.050316
   31  XE 1 YY    0.000000   0.000000   0.000000   0.000000  -0.050316
   32  XE 1 ZZ    0.000000   0.000000   0.000000   0.000000   0.100631
   33  XE 1 XY    0.000000   0.000000   0.000000   0.000000   0.000000
   34  XE 1 XZ    0.045462   0.000000   0.000000   0.000000   0.000000
   35  XE 1 YZ    0.000000   0.000000   0.000000   0.000000   0.000000
   36  XE 1 XX    0.000000   0.000000   0.000000   0.000000   0.140314
   37  XE 1 YY    0.000000   0.000000   0.000000   0.000000   0.140314
   38  XE 1 ZZ    0.000000   0.000000   0.000000   0.000000  -0.280629
   39  XE 1 XY    0.000000   0.000000   0.000000   0.000000   0.000000
   40  XE 1 XZ   -0.130046   0.000000   0.000000   0.000000   0.000000
   41  XE 1 YZ    0.000000   0.000000   0.000000   0.000000   0.000000
   42  XE 1 XX    0.000000   0.000000   0.000000   0.000000   0.019895
   43  XE 1 YY    0.000000   0.000000   0.000000   0.000000   0.019895
   44  XE 1 ZZ    0.000000   0.000000   0.000000   0.000000  -0.039790
   45  XE 1 XY    0.000000   0.000000   0.000000   0.000000   0.000000
   46  XE 1 XZ    0.133442   0.000000   0.000000   0.000000   0.000000
   47  XE 1 YZ    0.000000   0.000000   0.000000   0.000000   0.000000
   48  XE 1 XX    0.000000   0.000000   0.000000   0.000000  -0.666358
   49  XE 1 YY    0.000000   0.000000   0.000000   0.000000  -0.666358
   50  XE 1 ZZ    0.000000   0.000000   0.000000   0.000000   1.332717
   51  XE 1 XY    0.000000   0.000000   0.000000   0.000000   0.000000
   52  XE 1 XZ   -0.048888   0.000000   0.000000   0.000000   0.000000
   53  XE 1 YZ    0.000000   0.000000   0.000000   0.000000   0.000000
   54  XE 1 XX    0.000000   0.000000   0.000000   0.000000   0.413917
   55  XE 1 YY    0.000000   0.000000   0.000000   0.000000   0.413917
   56  XE 1 ZZ    0.000000   0.000000   0.000000   0.000000  -0.827834
   57  XE 1 XY    0.000000   0.000000   0.000000   0.000000   0.000000
   58  XE 1 XZ    0.998815   0.000000   0.000000   0.000000   0.000000
   59  XE 1 YZ    0.000000   0.000000   0.000000   0.000000   0.000000
   60  XE 1 XXX   0.000000   0.000000   0.000000   0.000000   0.000000
   61  XE 1 YYY   0.000000   0.000000   0.000000   0.000000   0.000000
   62  XE 1 ZZZ   0.000000   0.000000   0.000000   0.000000   0.000000
   63  XE 1 XXY   0.000000   0.000000   0.000000   0.000000   0.000000
   64  XE 1 XXZ   0.000000   0.000000   0.000000   0.000000   0.000000
   65  XE 1 YYX   0.000000   0.000000   0.000000   0.000000   0.000000
   66  XE 1 YYZ   0.000000   0.000000   0.000000   0.000000   0.000000
   67  XE 1 ZZX   0.000000   0.000000   0.000000   0.000000   0.000000
   68  XE 1 ZZY   0.000000   0.000000   0.000000   0.000000   0.000000
   69  XE 1 XYZ   0.000000   0.000000   0.000000   0.000000   0.000000
   70  XE 1 XXX   0.000000   0.000000  -0.000000   0.000000   0.000000
   71  XE 1 YYY   0.000000   0.000000   0.000000  -0.000000   0.000000
   72  XE 1 ZZZ   0.000000  -0.000000   0.000000   0.000000   0.000000
   73  XE 1 XXY   0.000000   0.000000   0.000000   0.000000   0.000000
   74  XE 1 XXZ   0.000000   0.000000   0.000000   0.000000   0.000000
   75  XE 1 YYX   0.000000   0.000000   0.000000   0.000000   0.000000
   76  XE 1 YYZ   0.000000   0.000000   0.000000   0.000000   0.000000
   77  XE 1 ZZX   0.000000   0.000000   0.000000   0.000000   0.000000
   78  XE 1 ZZY   0.000000   0.000000   0.000000   0.000000   0.000000
   79  XE 1 XYZ   0.000000   0.000000   0.000000   0.000000   0.000000

                     41         42         43         44         45
                    0.5628     0.5628     0.5628     0.5628     0.5931
                     E2G        E2G        E1G        E1G        E1U 
    1  XE 1  S    0.000000   0.000000   0.000000  -0.000000  -0.000000
    2  XE 1  S    0.000000   0.000000   0.000000  -0.000000  -0.000000
    3  XE 1  S    0.000000   0.000000   0.000000  -0.000000  -0.000000
    4  XE 1  S    0.000000   0.000000   0.000000  -0.000000  -0.000000
    5  XE 1  S    0.000000   0.000000   0.000000  -0.000000  -0.000000
    6  XE 1  S    0.000000   0.000000   0.000000  -0.000000  -0.000000
    7  XE 1  S    0.000000   0.000000   0.000000  -0.000000  -0.000000
    8  XE 1  S    0.000000   0.000000   0.000000  -0.000000  -0.000000
    9  XE 1  X    0.000000   0.000000   0.000000  -0.000000  -0.000000
   10  XE 1  Y    0.000000   0.000000   0.000000  -0.000000  -0.000000
   11  XE 1  Z    0.000000   0.000000   0.000000  -0.000000  -0.000000
   12  XE 1  X    0.000000   0.000000   0.000000  -0.000000  -0.000000
   13  XE 1  Y    0.000000   0.000000   0.000000  -0.000000  -0.000000
   14  XE 1  Z    0.000000   0.000000   0.000000  -0.000000  -0.000000
   15  XE 1  X    0.000000   0.000000   0.000000  -0.000000  -0.000000
   16  XE 1  Y    0.000000   0.000000   0.000000  -0.000000  -0.000000
   17  XE 1  Z    0.000000   0.000000   0.000000  -0.000000  -0.000000
   18  XE 1  X    0.000000   0.000000   0.000000  -0.000000  -0.000000
   19  XE 1  Y    0.000000   0.000000   0.000000  -0.000000  -0.000000
   20  XE 1  Z    0.000000   0.000000   0.000000  -0.000000  -0.000000
   21  XE 1  X    0.000000   0.000000   0.000000  -0.000000   0.000000
   22  XE 1  Y    0.000000   0.000000   0.000000  -0.000000  -0.000000
   23  XE 1  Z    0.000000   0.000000   0.000000  -0.000000  -0.000000
   24  XE 1  X    0.000000   0.000000   0.000000  -0.000000  -0.000000
   25  XE 1  Y    0.000000   0.000000   0.000000  -0.000000  -0.000000
   26  XE 1  Z    0.000000   0.000000   0.000000  -0.000000  -0.000000
   27  XE 1  X    0.000000   0.000000   0.000000  -0.000000  -0.000000
   28  XE 1  Y    0.000000   0.000000   0.000000  -0.000000  -0.000000
   29  XE 1  Z    0.000000   0.000000   0.000000  -0.000000  -0.000000
   30  XE 1 XX    0.087149   0.000000   0.000000  -0.000000  -0.000000
   31  XE 1 YY   -0.087149   0.000000   0.000000  -0.000000  -0.000000
   32  XE 1 ZZ    0.000000   0.000000   0.000000  -0.000000  -0.000000
   33  XE 1 XY    0.000000   0.100631   0.000000  -0.000000  -0.000000
   34  XE 1 XZ    0.000000   0.000000   0.000000   0.100631  -0.000000
   35  XE 1 YZ    0.000000   0.000000   0.100631  -0.000000  -0.000000
   36  XE 1 XX   -0.243031   0.000000   0.000000  -0.000000  -0.000000
   37  XE 1 YY    0.243031   0.000000   0.000000  -0.000000  -0.000000
   38  XE 1 ZZ    0.000000   0.000000   0.000000  -0.000000  -0.000000
   39  XE 1 XY    0.000000  -0.280629   0.000000  -0.000000  -0.000000
   40  XE 1 XZ    0.000000   0.000000   0.000000  -0.280629  -0.000000
   41  XE 1 YZ    0.000000   0.000000  -0.280629  -0.000000  -0.000000
   42  XE 1 XX   -0.034459   0.000000   0.000000  -0.000000  -0.000000
   43  XE 1 YY    0.034459   0.000000   0.000000  -0.000000  -0.000000
   44  XE 1 ZZ    0.000000   0.000000   0.000000  -0.000000  -0.000000
   45  XE 1 XY    0.000000  -0.039790   0.000000  -0.000000  -0.000000
   46  XE 1 XZ    0.000000   0.000000   0.000000  -0.039790  -0.000000
   47  XE 1 YZ    0.000000   0.000000  -0.039790  -0.000000  -0.000000
   48  XE 1 XX    1.154167   0.000000   0.000000  -0.000000  -0.000000
   49  XE 1 YY   -1.154167   0.000000   0.000000  -0.000000  -0.000000
   50  XE 1 ZZ    0.000000   0.000000   0.000000  -0.000000  -0.000000
   51  XE 1 XY    0.000000   1.332717   0.000000  -0.000000  -0.000000
   52  XE 1 XZ    0.000000   0.000000   0.000000   1.332717  -0.000000
   53  XE 1 YZ    0.000000   0.000000   1.332717  -0.000000  -0.000000
   54  XE 1 XX   -0.716925   0.000000   0.000000  -0.000000  -0.000000
   55  XE 1 YY    0.716925   0.000000   0.000000  -0.000000  -0.000000
   56  XE 1 ZZ    0.000000   0.000000   0.000000  -0.000000  -0.000000
   57  XE 1 XY    0.000000  -0.827834   0.000000  -0.000000  -0.000000
   58  XE 1 XZ    0.000000   0.000000   0.000000  -0.827834  -0.000000
   59  XE 1 YZ    0.000000   0.000000  -0.827834  -0.000000  -0.000000
   60  XE 1 XXX   0.000000   0.000000   0.000000  -0.000000   0.000519
   61  XE 1 YYY   0.000000   0.000000   0.000000  -0.000000  -0.000000
   62  XE 1 ZZZ   0.000000   0.000000   0.000000  -0.000000  -0.000000
   63  XE 1 XXY   0.000000   0.000000   0.000000  -0.000000  -0.000000
   64  XE 1 XXZ   0.000000   0.000000   0.000000  -0.000000  -0.000000
   65  XE 1 YYX   0.000000   0.000000   0.000000  -0.000000   0.000232
   66  XE 1 YYZ   0.000000   0.000000   0.000000  -0.000000  -0.000000
   67  XE 1 ZZX   0.000000   0.000000   0.000000  -0.000000  -0.000928
   68  XE 1 ZZY   0.000000   0.000000   0.000000  -0.000000  -0.000000
   69  XE 1 XYZ   0.000000   0.000000   0.000000  -0.000000  -0.000000
   70  XE 1 XXX   0.000000   0.000000   0.000000  -0.000000  -0.612642
   71  XE 1 YYY   0.000000   0.000000   0.000000  -0.000000  -0.000000
   72  XE 1 ZZZ   0.000000   0.000000   0.000000  -0.000000  -0.000000
   73  XE 1 XXY   0.000000   0.000000   0.000000  -0.000000  -0.000000
   74  XE 1 XXZ   0.000000   0.000000   0.000000  -0.000000  -0.000000
   75  XE 1 YYX   0.000000   0.000000   0.000000  -0.000000  -0.273982
   76  XE 1 YYZ   0.000000   0.000000   0.000000  -0.000000  -0.000000
   77  XE 1 ZZX   0.000000   0.000000   0.000000  -0.000000   1.095927
   78  XE 1 ZZY   0.000000   0.000000   0.000000  -0.000000  -0.000000
   79  XE 1 XYZ   0.000000   0.000000   0.000000  -0.000000  -0.000000

                     46         47         48         49         50
                    0.5931     0.5931     0.5931     0.5931     0.5931
                     E1U        E3U        E3U        A2U        E2U 
    1  XE 1  S   -0.000000  -0.000000   0.000000   0.000000   0.000000
    2  XE 1  S   -0.000000  -0.000000   0.000000   0.000000   0.000000
    3  XE 1  S   -0.000000  -0.000000   0.000000   0.000000   0.000000
    4  XE 1  S   -0.000000  -0.000000   0.000000   0.000000   0.000000
    5  XE 1  S   -0.000000  -0.000000   0.000000   0.000000   0.000000
    6  XE 1  S   -0.000000  -0.000000   0.000000   0.000000   0.000000
    7  XE 1  S   -0.000000  -0.000000   0.000000   0.000000   0.000000
    8  XE 1  S   -0.000000  -0.000000   0.000000   0.000000   0.000000
    9  XE 1  X   -0.000000  -0.000000   0.000000   0.000000   0.000000
   10  XE 1  Y   -0.000000  -0.000000   0.000000   0.000000   0.000000
   11  XE 1  Z   -0.000000  -0.000000   0.000000   0.000000   0.000000
   12  XE 1  X   -0.000000  -0.000000   0.000000   0.000000   0.000000
   13  XE 1  Y   -0.000000  -0.000000   0.000000   0.000000   0.000000
   14  XE 1  Z   -0.000000  -0.000000   0.000000   0.000000   0.000000
   15  XE 1  X   -0.000000  -0.000000   0.000000   0.000000   0.000000
   16  XE 1  Y   -0.000000  -0.000000   0.000000   0.000000   0.000000
   17  XE 1  Z   -0.000000  -0.000000   0.000000   0.000000   0.000000
   18  XE 1  X   -0.000000  -0.000000   0.000000   0.000000   0.000000
   19  XE 1  Y   -0.000000  -0.000000   0.000000   0.000000   0.000000
   20  XE 1  Z   -0.000000  -0.000000   0.000000   0.000000   0.000000
   21  XE 1  X   -0.000000  -0.000000   0.000000   0.000000   0.000000
   22  XE 1  Y    0.000000  -0.000000   0.000000   0.000000   0.000000
   23  XE 1  Z   -0.000000  -0.000000   0.000000  -0.000000   0.000000
   24  XE 1  X   -0.000000  -0.000000   0.000000   0.000000   0.000000
   25  XE 1  Y   -0.000000  -0.000000   0.000000   0.000000   0.000000
   26  XE 1  Z   -0.000000  -0.000000   0.000000   0.000000   0.000000
   27  XE 1  X   -0.000000  -0.000000   0.000000   0.000000   0.000000
   28  XE 1  Y   -0.000000  -0.000000   0.000000   0.000000   0.000000
   29  XE 1  Z   -0.000000  -0.000000   0.000000   0.000000   0.000000
   30  XE 1 XX   -0.000000  -0.000000   0.000000   0.000000   0.000000
   31  XE 1 YY   -0.000000  -0.000000   0.000000   0.000000   0.000000
   32  XE 1 ZZ   -0.000000  -0.000000   0.000000   0.000000   0.000000
   33  XE 1 XY   -0.000000  -0.000000   0.000000   0.000000   0.000000
   34  XE 1 XZ   -0.000000  -0.000000   0.000000   0.000000   0.000000
   35  XE 1 YZ   -0.000000  -0.000000   0.000000   0.000000   0.000000
   36  XE 1 XX   -0.000000  -0.000000   0.000000   0.000000   0.000000
   37  XE 1 YY   -0.000000  -0.000000   0.000000   0.000000   0.000000
   38  XE 1 ZZ   -0.000000  -0.000000   0.000000   0.000000   0.000000
   39  XE 1 XY   -0.000000  -0.000000   0.000000   0.000000   0.000000
   40  XE 1 XZ   -0.000000  -0.000000   0.000000   0.000000   0.000000
[...]
   11  XE 1  Z    0.000000   0.000000   0.000000  -0.000000  -0.000000
   12  XE 1  X   -0.381263   0.000000   0.000000  -0.000000  -0.000000
   13  XE 1  Y    0.000000  -0.381263   0.000000  -0.000000  -0.000000
   14  XE 1  Z    0.000000   0.000000   0.000000  -0.000000  -0.000000
   15  XE 1  X    0.986010   0.000000   0.000000  -0.000000  -0.000000
   16  XE 1  Y    0.000000   0.986010   0.000000  -0.000000  -0.000000
   17  XE 1  Z    0.000000   0.000000   0.000000  -0.000000  -0.000000
   18  XE 1  X   -2.622875   0.000000   0.000000  -0.000000  -0.000000
   19  XE 1  Y    0.000000  -2.622875   0.000000  -0.000000  -0.000000
   20  XE 1  Z    0.000000   0.000000   0.000000  -0.000000  -0.000000
   21  XE 1  X    3.078594   0.000000   0.000000  -0.000000  -0.000000
   22  XE 1  Y    0.000000   3.078594   0.000000  -0.000000  -0.000000
   23  XE 1  Z    0.000000   0.000000   0.000000  -0.000000  -0.000000
   24  XE 1  X   -1.597460   0.000000   0.000000  -0.000000  -0.000000
   25  XE 1  Y    0.000000  -1.597460   0.000000  -0.000000  -0.000000
   26  XE 1  Z    0.000000   0.000000   0.000000  -0.000000  -0.000000
   27  XE 1  X    0.427401   0.000000   0.000000  -0.000000  -0.000000
   28  XE 1  Y    0.000000   0.427401   0.000000  -0.000000  -0.000000
   29  XE 1  Z    0.000000   0.000000   0.000000  -0.000000  -0.000000
   30  XE 1 XX    0.000000   0.000000  -0.122999   0.213040  -0.000000
   31  XE 1 YY    0.000000   0.000000  -0.122999  -0.213040  -0.000000
   32  XE 1 ZZ    0.000000   0.000000   0.245998  -0.000000  -0.000000
   33  XE 1 XY    0.000000   0.000000   0.000000  -0.000000   0.245998
   34  XE 1 XZ    0.000000   0.000000   0.000000  -0.000000  -0.000000
   35  XE 1 YZ    0.000000   0.000000   0.000000  -0.000000  -0.000000
   36  XE 1 XX    0.000000   0.000000   0.384647  -0.666229  -0.000000
   37  XE 1 YY    0.000000   0.000000   0.384647   0.666229  -0.000000
   38  XE 1 ZZ    0.000000   0.000000  -0.769295  -0.000000  -0.000000
   39  XE 1 XY    0.000000   0.000000   0.000000  -0.000000  -0.769295
   40  XE 1 XZ    0.000000   0.000000   0.000000  -0.000000  -0.000000
   41  XE 1 YZ    0.000000   0.000000   0.000000  -0.000000  -0.000000
   42  XE 1 XX    0.000000   0.000000  -0.993153   1.720192  -0.000000
   43  XE 1 YY    0.000000   0.000000  -0.993153  -1.720192  -0.000000
   44  XE 1 ZZ    0.000000   0.000000   1.986306  -0.000000  -0.000000
   45  XE 1 XY    0.000000   0.000000   0.000000  -0.000000   1.986306
   46  XE 1 XZ    0.000000   0.000000   0.000000  -0.000000  -0.000000
   47  XE 1 YZ    0.000000   0.000000   0.000000  -0.000000  -0.000000
   48  XE 1 XX    0.000000   0.000000   0.812812  -1.407832  -0.000000
   49  XE 1 YY    0.000000   0.000000   0.812812   1.407832  -0.000000
   50  XE 1 ZZ    0.000000   0.000000  -1.625625  -0.000000  -0.000000
   51  XE 1 XY    0.000000   0.000000   0.000000  -0.000000  -1.625625
   52  XE 1 XZ    0.000000   0.000000   0.000000  -0.000000  -0.000000
   53  XE 1 YZ    0.000000   0.000000   0.000000  -0.000000  -0.000000
   54  XE 1 XX    0.000000   0.000000  -0.237014   0.410521  -0.000000
   55  XE 1 YY    0.000000   0.000000  -0.237014  -0.410521  -0.000000
   56  XE 1 ZZ    0.000000   0.000000   0.474029  -0.000000  -0.000000
   57  XE 1 XY    0.000000   0.000000   0.000000  -0.000000   0.474029
   58  XE 1 XZ    0.000000   0.000000   0.000000  -0.000000  -0.000000
   59  XE 1 YZ    0.000000   0.000000   0.000000  -0.000000  -0.000000
   60  XE 1 XXX   0.000000   0.000000   0.000000  -0.000000  -0.000000
   61  XE 1 YYY   0.000000   0.000000   0.000000  -0.000000  -0.000000
   62  XE 1 ZZZ   0.000000   0.000000   0.000000  -0.000000  -0.000000
   63  XE 1 XXY   0.000000   0.000000   0.000000  -0.000000  -0.000000
   64  XE 1 XXZ   0.000000   0.000000   0.000000  -0.000000  -0.000000
   65  XE 1 YYX   0.000000   0.000000   0.000000  -0.000000  -0.000000
   66  XE 1 YYZ   0.000000   0.000000   0.000000  -0.000000  -0.000000
   67  XE 1 ZZX   0.000000   0.000000   0.000000  -0.000000  -0.000000
   68  XE 1 ZZY   0.000000   0.000000   0.000000  -0.000000  -0.000000
   69  XE 1 XYZ   0.000000   0.000000   0.000000  -0.000000  -0.000000
   70  XE 1 XXX   0.000000   0.000000   0.000000  -0.000000  -0.000000
   71  XE 1 YYY   0.000000   0.000000   0.000000  -0.000000  -0.000000
   72  XE 1 ZZZ   0.000000   0.000000   0.000000  -0.000000  -0.000000
   73  XE 1 XXY   0.000000   0.000000   0.000000  -0.000000  -0.000000
   74  XE 1 XXZ   0.000000   0.000000   0.000000  -0.000000  -0.000000
   75  XE 1 YYX   0.000000   0.000000   0.000000  -0.000000  -0.000000
   76  XE 1 YYZ   0.000000   0.000000   0.000000  -0.000000  -0.000000
   77  XE 1 ZZX   0.000000   0.000000   0.000000  -0.000000  -0.000000
   78  XE 1 ZZY   0.000000   0.000000   0.000000  -0.000000  -0.000000
   79  XE 1 XYZ   0.000000   0.000000   0.000000  -0.000000  -0.000000

                     66         67         68
                    1.8176     1.8176     3.1114
                     E1G        E1G        A1G 
    1  XE 1  S   -0.000000   0.000000   0.012887
    2  XE 1  S   -0.000000   0.000000  -0.573993
    3  XE 1  S   -0.000000   0.000000  -0.911156
    4  XE 1  S   -0.000000   0.000000  -6.225135
    5  XE 1  S   -0.000000   0.000000 -11.682533
    6  XE 1  S   -0.000000   0.000000  12.837602
    7  XE 1  S   -0.000000   0.000000   3.988711
    8  XE 1  S   -0.000000   0.000000  -0.898181
    9  XE 1  X   -0.000000   0.000000  -0.000000
   10  XE 1  Y   -0.000000   0.000000  -0.000000
   11  XE 1  Z   -0.000000   0.000000  -0.000000
   12  XE 1  X   -0.000000   0.000000  -0.000000
   13  XE 1  Y   -0.000000   0.000000  -0.000000
   14  XE 1  Z   -0.000000   0.000000  -0.000000
   15  XE 1  X   -0.000000   0.000000  -0.000000
   16  XE 1  Y   -0.000000   0.000000  -0.000000
   17  XE 1  Z   -0.000000   0.000000  -0.000000
   18  XE 1  X   -0.000000   0.000000  -0.000000
   19  XE 1  Y   -0.000000   0.000000  -0.000000
   20  XE 1  Z   -0.000000   0.000000  -0.000000
   21  XE 1  X   -0.000000   0.000000  -0.000000
   22  XE 1  Y   -0.000000   0.000000  -0.000000
   23  XE 1  Z   -0.000000   0.000000  -0.000000
   24  XE 1  X   -0.000000   0.000000  -0.000000
   25  XE 1  Y   -0.000000   0.000000  -0.000000
   26  XE 1  Z   -0.000000   0.000000  -0.000000
   27  XE 1  X   -0.000000   0.000000  -0.000000
   28  XE 1  Y   -0.000000   0.000000  -0.000000
   29  XE 1  Z   -0.000000   0.000000  -0.000000
   30  XE 1 XX   -0.000000   0.000000  -0.000000
   31  XE 1 YY   -0.000000   0.000000  -0.000000
   32  XE 1 ZZ   -0.000000   0.000000  -0.000000
   33  XE 1 XY   -0.000000   0.000000  -0.000000
   34  XE 1 XZ   -0.000000   0.245998  -0.000000
   35  XE 1 YZ    0.245998   0.000000  -0.000000
   36  XE 1 XX   -0.000000   0.000000  -0.000000
   37  XE 1 YY   -0.000000   0.000000  -0.000000
   38  XE 1 ZZ   -0.000000   0.000000   0.000000
   39  XE 1 XY   -0.000000   0.000000  -0.000000
   40  XE 1 XZ   -0.000000  -0.769295  -0.000000
   41  XE 1 YZ   -0.769295   0.000000  -0.000000
   42  XE 1 XX   -0.000000   0.000000   0.000000
   43  XE 1 YY   -0.000000   0.000000   0.000000
   44  XE 1 ZZ   -0.000000   0.000000  -0.000000
   45  XE 1 XY   -0.000000   0.000000  -0.000000
   46  XE 1 XZ   -0.000000   1.986306  -0.000000
   47  XE 1 YZ    1.986306   0.000000  -0.000000
   48  XE 1 XX   -0.000000   0.000000  -0.000000
   49  XE 1 YY   -0.000000   0.000000  -0.000000
   50  XE 1 ZZ   -0.000000   0.000000   0.000000
   51  XE 1 XY   -0.000000   0.000000  -0.000000
   52  XE 1 XZ   -0.000000  -1.625625  -0.000000
   53  XE 1 YZ   -1.625625   0.000000  -0.000000
   54  XE 1 XX   -0.000000   0.000000  -0.000000
   55  XE 1 YY   -0.000000   0.000000  -0.000000
   56  XE 1 ZZ   -0.000000   0.000000  -0.000000
   57  XE 1 XY   -0.000000   0.000000  -0.000000
   58  XE 1 XZ   -0.000000   0.474029  -0.000000
   59  XE 1 YZ    0.474029   0.000000  -0.000000
   60  XE 1 XXX  -0.000000   0.000000  -0.000000
   61  XE 1 YYY  -0.000000   0.000000  -0.000000
   62  XE 1 ZZZ  -0.000000   0.000000  -0.000000
   63  XE 1 XXY  -0.000000   0.000000  -0.000000
   64  XE 1 XXZ  -0.000000   0.000000  -0.000000
   65  XE 1 YYX  -0.000000   0.000000  -0.000000
   66  XE 1 YYZ  -0.000000   0.000000  -0.000000
   67  XE 1 ZZX  -0.000000   0.000000  -0.000000
   68  XE 1 ZZY  -0.000000   0.000000  -0.000000
   69  XE 1 XYZ  -0.000000   0.000000  -0.000000
   70  XE 1 XXX  -0.000000   0.000000  -0.000000
   71  XE 1 YYY  -0.000000   0.000000  -0.000000
   72  XE 1 ZZZ  -0.000000   0.000000  -0.000000
   73  XE 1 XXY  -0.000000   0.000000  -0.000000
   74  XE 1 XXZ  -0.000000   0.000000  -0.000000
   75  XE 1 YYX  -0.000000   0.000000  -0.000000
   76  XE 1 YYZ  -0.000000   0.000000  -0.000000
   77  XE 1 ZZX  -0.000000   0.000000  -0.000000
   78  XE 1 ZZY  -0.000000   0.000000  -0.000000
   79  XE 1 XYZ  -0.000000   0.000000  -0.000000
 ...... END OF RHF CALCULATION ......
 CPU     0: STEP CPU TIME=     0.32 TOTAL CPU TIME=          0.7 (      0.0 MIN)
 TOTAL WALL CLOCK TIME=          1.1 SECONDS, CPU UTILIZATION IS    61.26%

     ----------------------------------------------------------------
     PROPERTY VALUES FOR THE RHF   SELF-CONSISTENT FIELD WAVEFUNCTION
     ----------------------------------------------------------------

          -----------------
          ENERGY COMPONENTS
          -----------------

         WAVEFUNCTION NORMALIZATION =       1.0000000000

                ONE ELECTRON ENERGY =  -10196.5740484721
                TWO ELECTRON ENERGY =    2753.1499945877
           NUCLEAR REPULSION ENERGY =       0.0000000000
                                      ------------------
                       TOTAL ENERGY =   -7443.4240538844

 ELECTRON-ELECTRON POTENTIAL ENERGY =    2753.1499945877
  NUCLEUS-ELECTRON POTENTIAL ENERGY =  -10196.5740484721
   NUCLEUS-NUCLEUS POTENTIAL ENERGY =       0.0000000000
                                      ------------------
             TOTAL POTENTIAL ENERGY =   -7443.4240538844
               TOTAL KINETIC ENERGY =       0.0000000000
                 VIRIAL RATIO (V/T) =           Infinity

          ---------------------------------------
          MULLIKEN AND LOWDIN POPULATION ANALYSES
          ---------------------------------------

     ATOMIC MULLIKEN POPULATION IN EACH MOLECULAR ORBITAL

                      1          2          3          4          5

                  2.000000   2.000000   2.000000   2.000000   2.000000

    1             2.000000   2.000000   2.000000   2.000000   2.000000

                      6          7          8          9         10

                  2.000000   2.000000   2.000000   2.000000   2.000000

    1             2.000000   2.000000   2.000000   2.000000   2.000000

                     11         12         13         14         15

                  2.000000   2.000000   2.000000   2.000000   2.000000

    1             2.000000   2.000000   2.000000   2.000000   2.000000

                     16         17         18         19         20

                  2.000000   2.000000   2.000000   2.000000   2.000000

    1             2.000000   2.000000   2.000000   2.000000   2.000000

                     21         22         23         24         25

                  2.000000   2.000000   2.000000   2.000000   2.000000

    1             2.000000   2.000000   2.000000   2.000000   2.000000

                     26         27

                  2.000000   2.000000

    1             2.000000   2.000000

               ----- POPULATIONS IN EACH AO -----
                             MULLIKEN      LOWDIN
              1  XE 1  S      1.99998     1.99911
              2  XE 1  S      1.99865     1.96717
              3  XE 1  S      1.99911     0.91256
              4  XE 1  S      2.00304     0.97841
              5  XE 1  S      1.27143     0.43494
              6  XE 1  S     -0.01169     0.30544
              7  XE 1  S      0.73405     0.27652
              8  XE 1  S      0.00544     0.09365
              9  XE 1  X      1.99983     1.99912
             10  XE 1  Y      1.99983     1.99912
             11  XE 1  Z      1.99983     1.99912
             12  XE 1  X      1.99987     1.98652
             13  XE 1  Y      1.99987     1.98652
             14  XE 1  Z      1.99987     1.98652
             15  XE 1  X      2.00062     1.85069
             16  XE 1  Y      2.00062     1.85069
             17  XE 1  Z      2.00062     1.85069
             18  XE 1  X      0.58506     0.52298
             19  XE 1  Y      0.58506     0.52298
             20  XE 1  Z      0.58506     0.52298
             21  XE 1  X      1.06811     0.45500
             22  XE 1  Y      1.06811     0.45500
             23  XE 1  Z      1.06811     0.45500
             24  XE 1  X      0.34420     0.21012
             25  XE 1  Y      0.34420     0.21012
             26  XE 1  Z      0.34420     0.21012
             27  XE 1  X      0.00230     0.02836
             28  XE 1  Y      0.00230     0.02836
             29  XE 1  Z      0.00230     0.02836
             30  XE 1 XX      1.99950     1.69759
             31  XE 1 YY      1.99950     1.69759
             32  XE 1 ZZ      1.99950     1.69759
             33  XE 1 XY      1.99950     1.98893
             34  XE 1 XZ      1.99950     1.98893
             35  XE 1 YZ     -0.00000     1.98893
             36  XE 1 XX      2.00216     1.51830
             37  XE 1 YY      2.00216     1.51830
             38  XE 1 ZZ      2.00216     1.51830
             39  XE 1 XY      2.00216     1.82167
             40  XE 1 XZ      2.00216     1.82167
             41  XE 1 YZ      0.00000     1.82167
             42  XE 1 XX     -0.00473     0.33415
             43  XE 1 YY     -0.00473     0.33415
             44  XE 1 ZZ     -0.00473     0.33415
             45  XE 1 XY     -0.00473     0.17889
             46  XE 1 XZ     -0.00473     0.17889
             47  XE 1 YZ      0.00000     0.17889
             48  XE 1 XX      0.00295     0.11941
             49  XE 1 YY      0.00295     0.11941
             50  XE 1 ZZ      0.00295     0.11941
             51  XE 1 XY      0.00295     0.01024
             52  XE 1 XZ      0.00295     0.01024
             53  XE 1 YZ     -0.00000     0.01024
             54  XE 1 XX      0.00012     0.00796
             55  XE 1 YY      0.00012     0.00796
             56  XE 1 ZZ      0.00012     0.00796
             57  XE 1 XY      0.00012     0.00027
             58  XE 1 XZ      0.00012     0.00027
             59  XE 1 YZ      0.00000     0.00027
             60  XE 1 XXX     0.00000     0.35648
             61  XE 1 YYY     0.00000     0.35648
             62  XE 1 ZZZ     0.00000     0.35648
             63  XE 1 XXY     0.00000     0.15344
             64  XE 1 XXZ     0.00000     0.15344
             65  XE 1 YYX     0.00000     0.15344
             66  XE 1 YYZ     0.00000     0.15344
             67  XE 1 ZZX     0.00000     0.15344
             68  XE 1 ZZY     0.00000     0.15344
             69  XE 1 XYZ     0.00000     0.00000
             70  XE 1 XXX     0.00000     0.15409
             71  XE 1 YYY     0.00000     0.15409
             72  XE 1 ZZZ     0.00000     0.15409
             73  XE 1 XXY     0.00000     0.06489
             74  XE 1 XXZ     0.00000     0.06489
             75  XE 1 YYX     0.00000     0.06489
             76  XE 1 YYZ     0.00000     0.06489
             77  XE 1 ZZX     0.00000     0.06489
             78  XE 1 ZZY     0.00000     0.06489
             79  XE 1 XYZ    -0.00000     0.00000

          ----- MULLIKEN ATOMIC OVERLAP POPULATIONS -----
          (OFF-DIAGONAL ELEMENTS NEED TO BE MULTIPLIED BY 2)

             1

    1   54.0000000

          TOTAL MULLIKEN AND LOWDIN ATOMIC POPULATIONS
       ATOM         MULL.POP.    CHARGE          LOW.POP.     CHARGE
    1 XE           54.000000   -0.000000        54.000000   -0.000000

          MULLIKEN SPHERICAL HARMONIC POPULATIONS
       ATOM           S       P       D      F      G      H      I    TOTAL
    1 XE           10.00   24.00   20.00   0.00   0.00   0.00   0.00   54.00

          -------------------------------
          BOND ORDER AND VALENCE ANALYSIS     BOND ORDER THRESHOLD=0.050
          -------------------------------

                   BOND                       BOND                       BOND
  ATOM PAIR DIST  ORDER      ATOM PAIR DIST  ORDER      ATOM PAIR DIST  ORDER

                       TOTAL       BONDED        FREE
      ATOM            VALENCE     VALENCE     VALENCE
    1 XE               -0.000       0.000      -0.000

          ---------------------
          ELECTROSTATIC MOMENTS
          ---------------------

 POINT   1           X           Y           Z (BOHR)    CHARGE
                 0.000000    0.000000    0.000000       -0.00 (A.U.)
         DX          DY          DZ         /D/  (DEBYE)
     0.000000    0.000000    0.000000    0.000000
 ...... END OF PROPERTY EVALUATION ......
 CPU     0: STEP CPU TIME=     0.01 TOTAL CPU TIME=          0.7 (      0.0 MIN)
 TOTAL WALL CLOCK TIME=          1.1 SECONDS, CPU UTILIZATION IS    61.61%
               746566  WORDS OF DYNAMIC MEMORY USED
 EXECUTION OF GAMESS TERMINATED NORMALLY Mon Feb  1 11:39:20 2021
 DDI: 263640 bytes (0.3 MB / 0 MWords) used by master data server.
Note: The following floating-point exceptions are signalling: IEEE_DIVIDE_BY_ZERO IEEE_UNDERFLOW_FLAG IEEE_DENORMAL
Note: The following floating-point exceptions are signalling: IEEE_DIVIDE_BY_ZERO IEEE_UNDERFLOW_FLAG IEEE_DENORMAL
Note: The following floating-point exceptions are signalling: IEEE_DIVIDE_BY_ZERO IEEE_UNDERFLOW_FLAG IEEE_DENORMAL
Note: The following floating-point exceptions are signalling: IEEE_DIVIDE_BY_ZERO IEEE_UNDERFLOW_FLAG IEEE_DENORMAL
Note: The following floating-point exceptions are signalling: IEEE_DIVIDE_BY_ZERO IEEE_UNDERFLOW_FLAG IEEE_DENORMAL
Note: The following floating-point exceptions are signalling: IEEE_DIVIDE_BY_ZERO IEEE_UNDERFLOW_FLAG IEEE_DENORMAL
Note: The following floating-point exceptions are signalling: IEEE_DIVIDE_BY_ZERO IEEE_UNDERFLOW_FLAG IEEE_DENORMAL
Note: The following floating-point exceptions are signalling: IEEE_DIVIDE_BY_ZERO IEEE_UNDERFLOW_FLAG IEEE_DENORMAL
Note: The following floating-point exceptions are signalling: IEEE_DIVIDE_BY_ZERO IEEE_UNDERFLOW_FLAG IEEE_DENORMAL
Note: The following floating-point exceptions are signalling: IEEE_DIVIDE_BY_ZERO IEEE_UNDERFLOW_FLAG IEEE_DENORMAL
Note: The following floating-point exceptions are signalling: IEEE_DIVIDE_BY_ZERO IEEE_UNDERFLOW_FLAG IEEE_DENORMAL
Note: The following floating-point exceptions are signalling: IEEE_DIVIDE_BY_ZERO IEEE_UNDERFLOW_FLAG IEEE_DENORMAL

 ----------------------------------------
 CPU timing information for all processes
 ========================================
 0: 0.631 + 0.74 = 0.706
 1: 0.621 + 0.62 = 0.683
 2: 0.623 + 0.18 = 0.641
 3: 0.619 + 0.123 = 0.742
 4: 0.678 + 0.28 = 0.706
 5: 0.621 + 0.99 = 0.720
 6: 0.716 + 0.30 = 0.747
 7: 0.642 + 0.69 = 0.711
 8: 0.603 + 0.61 = 0.664
 9: 0.606 + 0.34 = 0.641
 10: 0.615 + 0.113 = 0.729
 11: 0.633 + 0.77 = 0.711
 12: 0.646 + 0.75 = 0.722
 13: 0.619 + 0.42 = 0.661
 ----------------------------------------
Note: The following floating-point exceptions are signalling: IEEE_DIVIDE_BY_ZERO IEEE_UNDERFLOW_FLAG IEEE_DENORMAL
Note: The following floating-point exceptions are signalling: IEEE_DIVIDE_BY_ZERO IEEE_UNDERFLOW_FLAG IEEE_DENORMAL
 ddikick.x: exited gracefully.
unset echo
----- accounting info -----
Files used on the master node paul-VirtualBox were:
-rw-rw-r-- 1 paul paul   90742 Feb  1 11:39 /tmp/xe_SPKrATZP_rel.dat
-rwxrwx--- 1 paul paul     320 Feb  1 11:39 /tmp/xe_SPKrATZP_rel.F05*
-rw-rw-r-- 1 paul paul 4384480 Feb  1 11:39 /tmp/xe_SPKrATZP_rel.F10
ls: No match.
ls: No match.
ls: No match.
Mon 01 Feb 2021 11:39:23 AM EST
0.0u 0.0s 0:04.20 0.9% 0+0k 0+16io 0pf+0w
