[Molden Format]
[Atoms] Angs
O      1  8     0.000000     0.000000    -1.087767
N      2  7     0.000000     0.000000     0.087116
N      3  7     0.000000     0.000000     1.179311
[GTO]
  1 0
s     8 1.00
1.172000000e+04 7.096459470e-04
1.759000000e+03 5.467272292e-03
4.008000000e+02 2.782311861e-02
1.137000000e+02 1.047477397e-01
3.703000000e+01 2.829208464e-01
1.327000000e+01 4.484952387e-01
5.025000000e+00 2.708168852e-01
1.013000000e+00 1.545029161e-02
s     8 1.00
1.172000000e+04 -3.144434120e-04
1.759000000e+03 -2.482137681e-03
4.008000000e+02 -1.231635538e-02
1.137000000e+02 -5.053891734e-02
3.703000000e+01 -1.393849033e-01
1.327000000e+01 -3.250774948e-01
5.025000000e+00 -2.298483076e-01
1.013000000e+00 1.095379347e+00
s     1 1.00
3.023000000e-01 1.000000000e+00
p     3 1.00
1.770000000e+01 6.267916628e-02
3.854000000e+00 3.335365659e-01
1.046000000e+00 7.412396416e-01
p     1 1.00
2.753000000e-01 1.000000000e+00
d     1 1.00
1.185000000e+00 1.000000000e+00
s     1 1.00
7.896000000e-02 1.000000000e+00
p     1 1.00
6.856000000e-02 1.000000000e+00
d     1 1.00
3.320000000e-01 1.000000000e+00

  2 0
s     8 1.00
9.046000000e+03 6.996174130e-04
1.357000000e+03 5.386054630e-03
3.093000000e+02 2.739102119e-02
8.773000000e+01 1.031505920e-01
2.856000000e+01 2.785706633e-01
1.021000000e+01 4.482948495e-01
3.838000000e+00 2.780859284e-01
7.466000000e-01 1.543156123e-02
s     8 1.00
9.046000000e+03 -3.049900960e-04
1.357000000e+03 -2.408026379e-03
3.093000000e+02 -1.194444872e-02
8.773000000e+01 -4.892599291e-02
2.856000000e+01 -1.344727247e-01
1.021000000e+01 -3.151125777e-01
3.838000000e+00 -2.428578326e-01
7.466000000e-01 1.094382207e+00
s     1 1.00
2.248000000e-01 1.000000000e+00
p     3 1.00
1.355000000e+01 5.890567677e-02
2.917000000e+00 3.204611067e-01
7.973000000e-01 7.530420618e-01
p     1 1.00
2.185000000e-01 1.000000000e+00
d     1 1.00
8.170000000e-01 1.000000000e+00
s     1 1.00
6.124000000e-02 1.000000000e+00
p     1 1.00
5.611000000e-02 1.000000000e+00
d     1 1.00
2.300000000e-01 1.000000000e+00

  3 0
s     8 1.00
9.046000000e+03 6.996174130e-04
1.357000000e+03 5.386054630e-03
3.093000000e+02 2.739102119e-02
8.773000000e+01 1.031505920e-01
2.856000000e+01 2.785706633e-01
1.021000000e+01 4.482948495e-01
3.838000000e+00 2.780859284e-01
7.466000000e-01 1.543156123e-02
s     8 1.00
9.046000000e+03 -3.049900960e-04
1.357000000e+03 -2.408026379e-03
3.093000000e+02 -1.194444872e-02
8.773000000e+01 -4.892599291e-02
2.856000000e+01 -1.344727247e-01
1.021000000e+01 -3.151125777e-01
3.838000000e+00 -2.428578326e-01
7.466000000e-01 1.094382207e+00
s     1 1.00
2.248000000e-01 1.000000000e+00
p     3 1.00
1.355000000e+01 5.890567677e-02
2.917000000e+00 3.204611067e-01
7.973000000e-01 7.530420618e-01
p     1 1.00
2.185000000e-01 1.000000000e+00
d     1 1.00
8.170000000e-01 1.000000000e+00
s     1 1.00
6.124000000e-02 1.000000000e+00
p     1 1.00
5.611000000e-02 1.000000000e+00
d     1 1.00
2.300000000e-01 1.000000000e+00


[MO]
 Sym= A1
 Ene=   -20.6612
 Spin= Alpha
 Occup=   2.000000
   1    1.002150
   2    0.003365
   3   -0.015683
   4    0.000000
   5    0.000000
   6    0.002569
   7    0.000000
   8    0.000000
   9   -0.008116
  10   -0.000164
  11   -0.000164
  12    0.000328
  13    0.000000
  14    0.000000
  15    0.000000
  16   -0.005305
  17    0.000000
  18    0.000000
  19   -0.000563
  20    0.000952
  21    0.000952
  22   -0.001904
  23    0.000000
  24    0.000000
  25    0.000000
  26    0.000508
  27    0.000671
  28    0.003935
  29    0.000000
  30    0.000000
  31   -0.000431
  32    0.000000
  33    0.000000
  34   -0.013509
  35    0.000404
  36    0.000404
  37   -0.000808
  38    0.000000
  39    0.000000
  40    0.000000
  41   -0.002968
  42    0.000000
  43    0.000000
  44   -0.003009
  45   -0.000348
  46   -0.000348
  47    0.000695
  48    0.000000
  49    0.000000
  50    0.000000
  51    0.000007
  52    0.000033
  53    0.008931
  54    0.000000
  55    0.000000
  56   -0.000435
  57    0.000000
  58    0.000000
  59   -0.003873
  60   -0.000084
  61   -0.000084
  62    0.000168
  63    0.000000
  64    0.000000
  65    0.000000
  66    0.006419
  67    0.000000
  68    0.000000
  69   -0.001016
  70   -0.000071
  71   -0.000071
  72    0.000142
  73    0.000000
  74    0.000000
  75    0.000000
 Sym= A1
 Ene=   -15.8503
 Spin= Alpha
 Occup=   2.000000
   1    0.000061
   2   -0.000287
   3   -0.001658
   4    0.000000
   5    0.000000
   6   -0.000002
   7    0.000000
   8    0.000000
   9    0.001175
  10   -0.000167
  11   -0.000167
  12    0.000333
  13    0.000000
  14    0.000000
  15    0.000000
  16    0.001613
  17    0.000000
  18    0.000000
  19   -0.000130
  20   -0.000436
  21   -0.000436
  22    0.000872
  23    0.000000
  24    0.000000
  25    0.000000
  26   -1.002813
  27   -0.005111
  28    0.022879
  29    0.000000
  30    0.000000
  31    0.000157
  32    0.000000
  33    0.000000
  34    0.010597
  35    0.000802
  36    0.000802
  37   -0.001604
  38    0.000000
  39    0.000000
  40    0.000000
  41    0.012660
  42    0.000000
  43    0.000000
  44    0.004270
  45   -0.002703
  46   -0.002703
  47    0.005407
  48    0.000000
  49    0.000000
  50    0.000000
  51   -0.010479
  52    0.000624
  53   -0.020461
  54    0.000000
  55    0.000000
  56   -0.000060
  57    0.000000
  58    0.000000
  59    0.009009
  60   -0.000126
  61   -0.000126
  62    0.000252
  63    0.000000
  64    0.000000
  65    0.000000
  66   -0.013127
  67    0.000000
  68    0.000000
  69    0.002230
  70    0.000631
  71    0.000631
  72   -0.001263
  73    0.000000
  74    0.000000
  75    0.000000
 Sym= A1
 Ene=   -15.7018
 Spin= Alpha
 Occup=   2.000000
   1   -0.000318
   2   -0.000543
   3    0.007881
   4    0.000000
   5    0.000000
   6    0.000325
   7    0.000000
   8    0.000000
   9    0.003207
  10   -0.000131
  11   -0.000131
  12    0.000263
  13    0.000000
  14    0.000000
  15    0.000000
  16    0.002957
  17    0.000000
  18    0.000000
  19    0.000360
  20   -0.000123
  21   -0.000123
  22    0.000246
  23    0.000000
  24    0.000000
  25    0.000000
  26   -0.011180
  27    0.000334
  28    0.008750
  29    0.000000
  30    0.000000
  31   -0.000459
  32    0.000000
  33    0.000000
  34    0.011137
  35    0.000673
  36    0.000673
  37   -0.001346
  38    0.000000
  39    0.000000
  40    0.000000
  41    0.001624
  42    0.000000
  43    0.000000
  44    0.001191
  45    0.001223
  46    0.001223
  47   -0.002446
  48    0.000000
  49    0.000000
  50    0.000000
  51    1.002736
  52    0.004699
  53   -0.017806
  54    0.000000
  55    0.000000
  56   -0.003900
  57    0.000000
  58    0.000000
  59    0.010568
  60   -0.000639
  61   -0.000639
  62    0.001279
  63    0.000000
  64    0.000000
  65    0.000000
  66   -0.004445
  67    0.000000
  68    0.000000
  69    0.001155
  70    0.001678
  71    0.001678
  72   -0.003356
  73    0.000000
  74    0.000000
  75    0.000000
 Sym= A1
 Ene=    -1.6338
 Spin= Alpha
 Occup=   2.000000
   1    0.009881
   2   -0.274965
   3   -0.248120
   4    0.000000
   5    0.000000
   6   -0.126809
   7    0.000000
   8    0.000000
   9   -0.054505
  10    0.007757
  11    0.007757
  12   -0.015515
  13    0.000000
  14    0.000000
  15    0.000000
  16    0.015927
  17    0.000000
  18    0.000000
  19    0.013163
  20    0.004860
  21    0.004860
  22   -0.009720
  23    0.000000
  24    0.000000
  25    0.000000
  26    0.013886
  27   -0.355991
  28   -0.336639
  29    0.000000
  30    0.000000
  31    0.041117
  32    0.000000
  33    0.000000
  34   -0.096685
  35    0.021609
  36    0.021609
  37   -0.043219
  38    0.000000
  39    0.000000
  40    0.000000
  41   -0.160873
  42    0.000000
  43    0.000000
  44   -0.031814
  45    0.018434
  46    0.018434
  47   -0.036868
  48    0.000000
  49    0.000000
  50    0.000000
  51    0.011671
  52   -0.158607
  53    0.065548
  54    0.000000
  55    0.000000
  56    0.111692
  57    0.000000
  58    0.000000
  59   -0.053845
  60    0.007833
  61    0.007833
  62   -0.015665
  63    0.000000
  64    0.000000
  65    0.000000
  66    0.145584
  67    0.000000
  68    0.000000
  69   -0.031509
  70   -0.004592
  71   -0.004592
  72    0.009185
  73    0.000000
  74    0.000000
  75    0.000000
 Sym= A1
 Ene=    -1.4519
 Spin= Alpha
 Occup=   2.000000
   1   -0.005745
   2    0.265941
   3    0.313292
   4    0.000000
   5    0.000000
   6    0.083455
   7    0.000000
   8    0.000000
   9    0.056728
  10   -0.005234
  11   -0.005234
  12    0.010468
  13    0.000000
  14    0.000000
  15    0.000000
  16    0.036857
  17    0.000000
  18    0.000000
  19   -0.005506
  20    0.000269
  21    0.000269
  22   -0.000538
  23    0.000000
  24    0.000000
  25    0.000000
  26    0.002216
  27   -0.122413
  28    0.011138
  29    0.000000
  30    0.000000
  31   -0.377061
  32    0.000000
  33    0.000000
  34    0.061462
  35   -0.001154
  36   -0.001154
  37    0.002308
  38    0.000000
  39    0.000000
  40    0.000000
  41    0.068202
  42    0.000000
  43    0.000000
  44    0.043199
  45   -0.000361
  46   -0.000361
  47    0.000722
  48    0.000000
  49    0.000000
  50    0.000000
  51    0.012689
  52   -0.281592
  53   -0.318409
  54    0.000000
  55    0.000000
  56    0.185227
  57    0.000000
  58    0.000000
  59    0.105379
  60    0.013025
  61    0.013025
  62   -0.026051
  63    0.000000
  64    0.000000
  65    0.000000
  66   -0.086934
  67    0.000000
  68    0.000000
  69    0.006827
  70    0.005582
  71    0.005582
  72   -0.011165
  73    0.000000
  74    0.000000
  75    0.000000
 Sym= A1
 Ene=    -0.8306
 Spin= Alpha
 Occup=   2.000000
   1    0.001069
   2    0.282619
   3    0.477816
   4    0.000000
   5    0.000000
   6   -0.397673
   7    0.000000
   8    0.000000
   9   -0.171786
  10    0.012432
  11    0.012432
  12   -0.024864
  13    0.000000
  14    0.000000
  15    0.000000
  16    0.119349
  17    0.000000
  18    0.000000
  19    0.021442
  20    0.004856
  21    0.004856
  22   -0.009712
  23    0.000000
  24    0.000000
  25    0.000000
  26   -0.006048
  27   -0.227269
  28   -0.492562
  29    0.000000
  30    0.000000
  31    0.232570
  32    0.000000
  33    0.000000
  34   -0.036326
  35    0.004581
  36    0.004581
  37   -0.009162
  38    0.000000
  39    0.000000
  40    0.000000
  41   -0.296512
  42    0.000000
  43    0.000000
  44   -0.058099
  45    0.022343
  46    0.022343
  47   -0.044685
  48    0.000000
  49    0.000000
  50    0.000000
  51   -0.001164
  52    0.162593
  53    0.422129
  54    0.000000
  55    0.000000
  56    0.057081
  57    0.000000
  58    0.000000
  59   -0.092322
  60    0.000758
  61    0.000758
  62   -0.001516
  63    0.000000
  64    0.000000
  65    0.000000
  66    0.247644
  67    0.000000
  68    0.000000
  69   -0.040819
  70   -0.013175
  71   -0.013175
  72    0.026350
  73    0.000000
  74    0.000000
  75    0.000000
 Sym= E1
 Ene=    -0.7759
 Spin= Alpha
 Occup=   2.000000
   1    0.000000
   2    0.000000
   3    0.000000
   4    0.328340
   5    0.000000
   6    0.000000
   7    0.257721
   8    0.000000
   9    0.000000
  10    0.000000
  11    0.000000
  12    0.000000
  13    0.000000
  14    0.023541
  15    0.000000
  16    0.000000
  17    0.004525
  18    0.000000
  19    0.000000
  20    0.000000
  21    0.000000
  22    0.000000
  23    0.000000
  24    0.046855
  25    0.000000
  26    0.000000
  27    0.000000
  28    0.000000
  29    0.453800
  30    0.000000
  31    0.000000
  32    0.237819
  33    0.000000
  34    0.000000
  35    0.000000
  36    0.000000
  37    0.000000
  38    0.000000
  39   -0.002249
  40    0.000000
  41    0.000000
  42    0.015915
  43    0.000000
  44    0.000000
  45    0.000000
  46    0.000000
  47    0.000000
  48    0.000000
  49    0.104473
  50    0.000000
  51    0.000000
  52    0.000000
  53    0.000000
  54    0.273948
  55    0.000000
  56    0.000000
  57    0.041579
  58    0.000000
  59    0.000000
  60    0.000000
  61    0.000000
  62    0.000000
  63    0.000000
  64   -0.040023
  65    0.000000
  66    0.000000
  67   -0.006522
  68    0.000000
  69    0.000000
  70    0.000000
  71    0.000000
  72    0.000000
  73    0.000000
  74    0.032028
  75    0.000000
 Sym= E1
 Ene=    -0.7759
 Spin= Alpha
 Occup=   2.000000
   1    0.000000
   2    0.000000
   3    0.000000
   4    0.000000
   5    0.328340
   6    0.000000
   7    0.000000
   8    0.257721
   9    0.000000
  10    0.000000
  11    0.000000
  12    0.000000
  13    0.000000
  14    0.000000
  15    0.023541
  16    0.000000
  17    0.000000
  18    0.004525
  19    0.000000
  20    0.000000
  21    0.000000
  22    0.000000
  23    0.000000
  24    0.000000
  25    0.046855
  26    0.000000
  27    0.000000
  28    0.000000
  29    0.000000
  30    0.453800
  31    0.000000
  32    0.000000
  33    0.237819
  34    0.000000
  35    0.000000
  36    0.000000
  37    0.000000
  38    0.000000
  39    0.000000
  40   -0.002249
  41    0.000000
  42    0.000000
  43    0.015915
  44    0.000000
  45    0.000000
  46    0.000000
  47    0.000000
  48    0.000000
  49    0.000000
  50    0.104473
  51    0.000000
  52    0.000000
  53    0.000000
  54    0.000000
  55    0.273948
  56    0.000000
  57    0.000000
  58    0.041579
  59    0.000000
  60    0.000000
  61    0.000000
  62    0.000000
  63    0.000000
  64    0.000000
  65   -0.040023
  66    0.000000
  67    0.000000
  68   -0.006522
  69    0.000000
  70    0.000000
  71    0.000000
  72    0.000000
  73    0.000000
  74    0.000000
  75    0.032028
 Sym= A1
 Ene=    -0.6985
 Spin= Alpha
 Occup=   2.000000
   1    0.000104
   2   -0.052626
   3   -0.098158
   4    0.000000
   5    0.000000
   6    0.170317
   7    0.000000
   8    0.000000
   9    0.093364
  10   -0.004818
  11   -0.004818
  12    0.009636
  13    0.000000
  14    0.000000
  15    0.000000
  16   -0.022844
  17    0.000000
  18    0.000000
  19   -0.006733
  20   -0.002464
  21   -0.002464
  22    0.004927
  23    0.000000
  24    0.000000
  25    0.000000
  26   -0.003800
  27   -0.098664
  28   -0.151402
  29    0.000000
  30    0.000000
  31   -0.265099
  32    0.000000
  33    0.000000
  34   -0.099850
  35   -0.002848
  36   -0.002848
  37    0.005696
  38    0.000000
  39    0.000000
  40    0.000000
  41   -0.024317
  42    0.000000
  43    0.000000
  44    0.015684
  45    0.001852
  46    0.001852
  47   -0.003705
  48    0.000000
  49    0.000000
  50    0.000000
  51   -0.001479
  52    0.282914
  53    0.535229
  54    0.000000
  55    0.000000
  56    0.447404
  57    0.000000
  58    0.000000
  59    0.161748
  60    0.015118
  61    0.015118
  62   -0.030236
  63    0.000000
  64    0.000000
  65    0.000000
  66    0.080058
  67    0.000000
  68    0.000000
  69   -0.009220
  70   -0.002813
  71   -0.002813
  72    0.005626
  73    0.000000
  74    0.000000
  75    0.000000
 Sym= E1
 Ene=    -0.4961
 Spin= Alpha
 Occup=   2.000000
   1    0.000000
   2    0.000000
   3    0.000000
   4    0.506307
   5    0.000000
   6    0.000000
   7    0.369906
   8    0.000000
   9    0.000000
  10    0.000000
  11    0.000000
  12    0.000000
  13    0.000000
  14    0.012079
  15    0.000000
  16    0.000000
  17    0.061245
  18    0.000000
  19    0.000000
  20    0.000000
  21    0.000000
  22    0.000000
  23    0.000000
  24    0.019125
  25    0.000000
  26    0.000000
  27    0.000000
  28    0.000000
  29   -0.145077
  30    0.000000
  31    0.000000
  32   -0.097496
  33    0.000000
  34    0.000000
  35    0.000000
  36    0.000000
  37    0.000000
  38    0.000000
  39   -0.070822
  40    0.000000
  41    0.000000
  42   -0.007039
  43    0.000000
  44    0.000000
  45    0.000000
  46    0.000000
  47    0.000000
  48    0.000000
  49   -0.030900
  50    0.000000
  51    0.000000
  52    0.000000
  53    0.000000
  54   -0.368435
  55    0.000000
  56    0.000000
  57   -0.234816
  58    0.000000
  59    0.000000
  60    0.000000
  61    0.000000
  62    0.000000
  63    0.000000
  64    0.023561
  65    0.000000
  66    0.000000
  67   -0.032396
  68    0.000000
  69    0.000000
  70    0.000000
  71    0.000000
  72    0.000000
  73    0.000000
  74    0.013529
  75    0.000000
 Sym= E1
 Ene=    -0.4961
 Spin= Alpha
 Occup=   2.000000
   1    0.000000
   2    0.000000
   3    0.000000
   4    0.000000
   5    0.506307
   6    0.000000
   7    0.000000
   8    0.369906
   9    0.000000
  10    0.000000
  11    0.000000
  12    0.000000
  13    0.000000
  14    0.000000
  15    0.012079
  16    0.000000
  17    0.000000
  18    0.061245
  19    0.000000
  20    0.000000
  21    0.000000
  22    0.000000
  23    0.000000
  24    0.000000
  25    0.019125
  26    0.000000
  27    0.000000
  28    0.000000
  29    0.000000
  30   -0.145077
  31    0.000000
  32    0.000000
  33   -0.097496
  34    0.000000
  35    0.000000
  36    0.000000
  37    0.000000
  38    0.000000
  39    0.000000
  40   -0.070822
  41    0.000000
  42    0.000000
  43   -0.007039
  44    0.000000
  45    0.000000
  46    0.000000
  47    0.000000
  48    0.000000
  49    0.000000
  50   -0.030900
  51    0.000000
  52    0.000000
  53    0.000000
  54    0.000000
  55   -0.368435
  56    0.000000
  57    0.000000
  58   -0.234816
  59    0.000000
  60    0.000000
  61    0.000000
  62    0.000000
  63    0.000000
  64    0.000000
  65    0.023561
  66    0.000000
  67    0.000000
  68   -0.032396
  69    0.000000
  70    0.000000
  71    0.000000
  72    0.000000
  73    0.000000
  74    0.000000
  75    0.013529
 Sym= A1
 Ene=     0.0801
 Spin= Alpha
 Occup=   0.000000
   1   -0.013618
   2    0.053515
   3    0.654734
   4    0.000000
   5    0.000000
   6    0.026692
   7    0.000000
   8    0.000000
   9    0.507249
  10   -0.000307
  11   -0.000307
  12    0.000613
  13    0.000000
  14    0.000000
  15    0.000000
  16    5.244095
  17    0.000000
  18    0.000000
  19    1.516242
  20   -0.049161
  21   -0.049161
  22    0.098322
  23    0.000000
  24    0.000000
  25    0.000000
  26    0.023300
  27    0.029125
  28   -0.618881
  29    0.000000
  30    0.000000
  31    0.027951
  32    0.000000
  33    0.000000
  34    0.762402
  35   -0.007614
  36   -0.007614
  37    0.015228
  38    0.000000
  39    0.000000
  40    0.000000
  41  -11.460066
  42    0.000000
  43    0.000000
  44    0.434355
  45    0.099107
  46    0.099107
  47   -0.198214
  48    0.000000
  49    0.000000
  50    0.000000
  51    0.019883
  52    0.118034
  53    0.009933
  54    0.000000
  55    0.000000
  56   -0.013799
  57    0.000000
  58    0.000000
  59    0.134474
  60   -0.001843
  61   -0.001843
  62    0.003687
  63    0.000000
  64    0.000000
  65    0.000000
  66    5.504506
  67    0.000000
  68    0.000000
  69   -2.038110
  70    0.005990
  71    0.005990
  72   -0.011980
  73    0.000000
  74    0.000000
  75    0.000000
 Sym= A1
 Ene=     0.1034
 Spin= Alpha
 Occup=   0.000000
   1   -0.001107
   2    0.032982
   3    0.088567
   4    0.000000
   5    0.000000
   6   -0.027381
   7    0.000000
   8    0.000000
   9    0.112392
  10    0.000127
  11    0.000127
  12   -0.000253
  13    0.000000
  14    0.000000
  15    0.000000
  16    1.196214
  17    0.000000
  18    0.000000
  19   -0.700120
  20   -0.010487
  21   -0.010487
  22    0.020973
  23    0.000000
  24    0.000000
  25    0.000000
  26   -0.025773
  27   -0.029676
  28    1.563432
  29    0.000000
  30    0.000000
  31    0.034960
  32    0.000000
  33    0.000000
  34    1.343582
  35    0.000059
  36    0.000059
  37   -0.000119
  38    0.000000
  39    0.000000
  40    0.000000
  41   19.632562
  42    0.000000
  43    0.000000
  44    6.867143
  45   -0.150079
  46   -0.150079
  47    0.300158
  48    0.000000
  49    0.000000
  50    0.000000
  51    0.023193
  52   -0.008240
  53   -1.895093
  54    0.000000
  55    0.000000
  56   -0.059161
  57    0.000000
  58    0.000000
  59    1.164326
  60   -0.002240
  61   -0.002240
  62    0.004481
  63    0.000000
  64    0.000000
  65    0.000000
  66  -20.251501
  67    0.000000
  68    0.000000
  69    5.235283
  70    0.130112
  71    0.130112
  72   -0.260225
  73    0.000000
  74    0.000000
  75    0.000000
 Sym= E1
 Ene=     0.1228
 Spin= Alpha
 Occup=   0.000000
   1    0.000000
   2    0.000000
   3    0.000000
   4   -0.113464
   5    0.000000
   6    0.000000
   7   -0.207067
   8    0.000000
   9    0.000000
  10    0.000000
  11    0.000000
  12    0.000000
  13    0.000000
  14    0.015788
  15    0.000000
  16    0.000000
  17   -0.383549
  18    0.000000
  19    0.000000
  20    0.000000
  21    0.000000
  22    0.000000
  23    0.000000
  24   -0.050462
  25    0.000000
  26    0.000000
  27    0.000000
  28    0.000000
  29    0.333717
  30    0.000000
  31    0.000000
  32    0.429819
  33    0.000000
  34    0.000000
  35    0.000000
  36    0.000000
  37    0.000000
  38    0.000000
  39   -0.005910
  40    0.000000
  41    0.000000
  42    0.515722
  43    0.000000
  44    0.000000
  45    0.000000
  46    0.000000
  47    0.000000
  48    0.000000
  49   -0.138653
  50    0.000000
  51    0.000000
  52    0.000000
  53    0.000000
  54   -0.149030
  55    0.000000
  56    0.000000
  57    0.006489
  58    0.000000
  59    0.000000
  60    0.000000
  61    0.000000
  62    0.000000
  63    0.000000
  64   -0.029419
  65    0.000000
  66    0.000000
  67   -1.204210
  68    0.000000
  69    0.000000
  70    0.000000
  71    0.000000
  72    0.000000
  73    0.000000
  74   -0.023045
  75    0.000000
 Sym= E1
 Ene=     0.1228
 Spin= Alpha
 Occup=   0.000000
   1    0.000000
   2    0.000000
   3    0.000000
   4    0.000000
   5   -0.113464
   6    0.000000
   7    0.000000
   8   -0.207067
   9    0.000000
  10    0.000000
  11    0.000000
  12    0.000000
  13    0.000000
  14    0.000000
  15    0.015788
  16    0.000000
  17    0.000000
  18   -0.383549
  19    0.000000
  20    0.000000
  21    0.000000
  22    0.000000
  23    0.000000
  24    0.000000
  25   -0.050462
  26    0.000000
  27    0.000000
  28    0.000000
  29    0.000000
  30    0.333717
  31    0.000000
  32    0.000000
  33    0.429819
  34    0.000000
  35    0.000000
  36    0.000000
  37    0.000000
  38    0.000000
  39    0.000000
  40   -0.005910
  41    0.000000
  42    0.000000
  43    0.515722
  44    0.000000
  45    0.000000
  46    0.000000
  47    0.000000
  48    0.000000
  49    0.000000
  50   -0.138653
  51    0.000000
  52    0.000000
  53    0.000000
  54    0.000000
  55   -0.149030
  56    0.000000
  57    0.000000
  58    0.006489
  59    0.000000
  60    0.000000
  61    0.000000
  62    0.000000
  63    0.000000
  64    0.000000
  65   -0.029419
  66    0.000000
  67    0.000000
  68   -1.204210
  69    0.000000
  70    0.000000
  71    0.000000
  72    0.000000
  73    0.000000
  74    0.000000
  75   -0.023045
 Sym= E1
 Ene=     0.1737
 Spin= Alpha
 Occup=   0.000000
   1    0.000000
   2    0.000000
   3    0.000000
   4    0.229431
   5    0.000000
   6    0.000000
   7    0.084235
   8    0.000000
   9    0.000000
  10    0.000000
  11    0.000000
  12    0.000000
  13    0.000000
  14    0.002407
  15    0.000000
  16    0.000000
  17    0.756595
  18    0.000000
  19    0.000000
  20    0.000000
  21    0.000000
  22    0.000000
  23    0.000000
  24   -0.089463
  25    0.000000
  26    0.000000
  27    0.000000
  28    0.000000
  29   -0.198675
  30    0.000000
  31    0.000000
  32   -0.246521
  33    0.000000
  34    0.000000
  35    0.000000
  36    0.000000
  37    0.000000
  38    0.000000
  39    0.010235
  40    0.000000
  41    0.000000
  42   -2.870351
  43    0.000000
  44    0.000000
  45    0.000000
  46    0.000000
  47    0.000000
  48    0.000000
  49   -0.304109
  50    0.000000
  51    0.000000
  52    0.000000
  53    0.000000
  54    0.255412
  55    0.000000
  56    0.000000
  57    0.627857
  58    0.000000
  59    0.000000
  60    0.000000
  61    0.000000
  62    0.000000
  63    0.000000
  64    0.009009
  65    0.000000
  66    0.000000
  67    1.591089
  68    0.000000
  69    0.000000
  70    0.000000
  71    0.000000
  72    0.000000
  73    0.000000
  74   -0.141924
  75    0.000000
 Sym= E1
 Ene=     0.1737
 Spin= Alpha
 Occup=   0.000000
   1    0.000000
   2    0.000000
   3    0.000000
   4    0.000000
   5    0.229431
   6    0.000000
   7    0.000000
   8    0.084235
   9    0.000000
  10    0.000000
  11    0.000000
  12    0.000000
  13    0.000000
  14    0.000000
  15    0.002407
  16    0.000000
  17    0.000000
  18    0.756595
  19    0.000000
  20    0.000000
  21    0.000000
  22    0.000000
  23    0.000000
  24    0.000000
  25   -0.089463
  26    0.000000
  27    0.000000
  28    0.000000
  29    0.000000
  30   -0.198675
  31    0.000000
  32    0.000000
  33   -0.246521
  34    0.000000
  35    0.000000
  36    0.000000
  37    0.000000
  38    0.000000
  39    0.000000
  40    0.010235
  41    0.000000
  42    0.000000
  43   -2.870351
  44    0.000000
  45    0.000000
  46    0.000000
  47    0.000000
  48    0.000000
  49    0.000000
  50   -0.304109
  51    0.000000
  52    0.000000
  53    0.000000
  54    0.000000
  55    0.255412
  56    0.000000
  57    0.000000
  58    0.627857
  59    0.000000
  60    0.000000
  61    0.000000
  62    0.000000
  63    0.000000
  64    0.000000
  65    0.009009
  66    0.000000
  67    0.000000
  68    1.591089
  69    0.000000
  70    0.000000
  71    0.000000
  72    0.000000
  73    0.000000
  74    0.000000
  75   -0.141924
 Sym= A1
 Ene=     0.1825
 Spin= Alpha
 Occup=   0.000000
   1    0.004762
   2    0.013426
   3   -0.331224
   4    0.000000
   5    0.000000
   6   -0.086085
   7    0.000000
   8    0.000000
   9    0.005574
  10    0.006289
  11    0.006289
  12   -0.012577
  13    0.000000
  14    0.000000
  15    0.000000
  16    3.010509
  17    0.000000
  18    0.000000
  19    1.236889
  20   -0.049612
  21   -0.049612
  22    0.099225
  23    0.000000
  24    0.000000
  25    0.000000
  26   -0.036134
  27   -0.107493
  28   -0.833431
  29    0.000000
  30    0.000000
  31   -0.000339
  32    0.000000
  33    0.000000
  34    0.113345
  35    0.025507
  36    0.025507
  37   -0.051013
  38    0.000000
  39    0.000000
  40    0.000000
  41   -4.563570
  42    0.000000
  43    0.000000
  44    1.529525
  45   -0.172277
  46   -0.172277
  47    0.344554
  48    0.000000
  49    0.000000
  50    0.000000
  51   -0.017502
  52   -0.092257
  53   -0.697453
  54    0.000000
  55    0.000000
  56    0.028095
  57    0.000000
  58    0.000000
  59   -0.223193
  60    0.004938
  61    0.004938
  62   -0.009877
  63    0.000000
  64    0.000000
  65    0.000000
  66    2.459317
  67    0.000000
  68    0.000000
  69   -1.904743
  70   -0.094089
  71   -0.094089
  72    0.188177
  73    0.000000
  74    0.000000
  75    0.000000
 Sym= E1
 Ene=     0.2183
 Spin= Alpha
 Occup=   0.000000
   1    0.000000
   2    0.000000
   3    0.000000
   4    0.068683
   5    0.000000
   6    0.000000
   7    0.164195
   8    0.000000
   9    0.000000
  10    0.000000
  11    0.000000
  12    0.000000
  13    0.000000
  14   -0.020766
  15    0.000000
  16    0.000000
  17    0.479553
  18    0.000000
  19    0.000000
  20    0.000000
  21    0.000000
  22    0.000000
  23    0.000000
  24    0.057894
  25    0.000000
  26    0.000000
  27    0.000000
  28    0.000000
  29   -0.286946
  30    0.000000
  31    0.000000
  32   -0.295498
  33    0.000000
  34    0.000000
  35    0.000000
  36    0.000000
  37    0.000000
  38    0.000000
  39    0.013934
  40    0.000000
  41    0.000000
  42    1.086893
  43    0.000000
  44    0.000000
  45    0.000000
  46    0.000000
  47    0.000000
  48    0.000000
  49    0.278002
  50    0.000000
  51    0.000000
  52    0.000000
  53    0.000000
  54    0.312715
  55    0.000000
  56    0.000000
  57    0.301973
  58    0.000000
  59    0.000000
  60    0.000000
  61    0.000000
  62    0.000000
  63    0.000000
  64   -0.006701
  65    0.000000
  66    0.000000
  67   -1.672699
  68    0.000000
  69    0.000000
  70    0.000000
  71    0.000000
  72    0.000000
  73    0.000000
  74    0.181091
  75    0.000000
 Sym= E1
 Ene=     0.2183
 Spin= Alpha
 Occup=   0.000000
   1    0.000000
   2    0.000000
   3    0.000000
   4    0.000000
   5    0.068683
   6    0.000000
   7    0.000000
   8    0.164195
   9    0.000000
  10    0.000000
  11    0.000000
  12    0.000000
  13    0.000000
  14    0.000000
  15   -0.020766
  16    0.000000
  17    0.000000
  18    0.479553
  19    0.000000
  20    0.000000
  21    0.000000
  22    0.000000
  23    0.000000
  24    0.000000
  25    0.057894
  26    0.000000
  27    0.000000
  28    0.000000
  29    0.000000
  30   -0.286946
  31    0.000000
  32    0.000000
  33   -0.295498
  34    0.000000
  35    0.000000
  36    0.000000
  37    0.000000
  38    0.000000
  39    0.000000
  40    0.013934
  41    0.000000
  42    0.000000
  43    1.086893
  44    0.000000
  45    0.000000
  46    0.000000
  47    0.000000
  48    0.000000
  49    0.000000
  50    0.278002
  51    0.000000
  52    0.000000
  53    0.000000
  54    0.000000
  55    0.312715
  56    0.000000
  57    0.000000
  58    0.301973
  59    0.000000
  60    0.000000
  61    0.000000
  62    0.000000
  63    0.000000
  64    0.000000
  65   -0.006701
  66    0.000000
  67    0.000000
  68   -1.672699
  69    0.000000
  70    0.000000
  71    0.000000
  72    0.000000
  73    0.000000
  74    0.000000
  75    0.181091
 Sym= A1
 Ene=     0.2669
 Spin= Alpha
 Occup=   0.000000
   1    0.007139
   2   -0.003267
   3   -0.084605
   4    0.000000
   5    0.000000
   6   -0.012448
   7    0.000000
   8    0.000000
   9    0.058007
  10   -0.011710
  11   -0.011710
  12    0.023420
  13    0.000000
  14    0.000000
  15    0.000000
  16    1.825928
  17    0.000000